Program Version,EnergyPlus, Version 9.3.0-baff08990c, YMD=2021.12.19 06:02
1,5,Environment Title[],Latitude[deg],Longitude[deg],Time Zone[],Elevation[m]
2,8,Day of Simulation[],Month[],Day of Month[],DST Indicator[1=yes 0=no],Hour[],StartMinute[],EndMinute[],DayType
3,5,Cumulative Day of Simulation[],Month[],Day of Month[],DST Indicator[1=yes 0=no],DayType  ! When Daily Meters Requested
4,2,Cumulative Days of Simulation[],Month[]  ! When Monthly Meters Requested
5,1,Cumulative Days of Simulation[] ! When Run Period Meters Requested
6,1,Calendar Year of Simulation[] ! When Annual Meters Requested
75,1,Electricity:Facility [J] !Hourly
1821,1,ElectricityNet:Facility [J] !Hourly
2077,1,Gas:Facility [J] !Hourly
111,1,InteriorLights:Electricity [J] !Hourly
543,1,InteriorEquipment:Electricity [J] !Hourly
End of Data Dictionary
1,RUN PERIOD 1,  39.72,-104.75,  -7.00,1726.00
2,1, 7, 1, 1, 1, 0.00,60.00,Sunday
75,65099663.34556803
111,3861201.791338584
543,33399901.5013581
1821,65099663.345568019
2077,6791184.0
2,1, 7, 1, 1, 2, 0.00,60.00,Sunday
75,63585456.18279371
111,3861201.791338584
543,33399901.5013581
1821,63585456.18279369
2077,6791184.0
2,1, 7, 1, 1, 3, 0.00,60.00,Sunday
75,63395205.25333287
111,3861201.791338584
543,33399901.5013581
1821,63395205.25333287
2077,6791184.0
2,1, 7, 1, 1, 4, 0.00,60.00,Sunday
75,53333432.313742939
111,3861201.791338584
543,33399901.5013581
1821,53333432.31374292
2077,6791183.999999999
2,1, 7, 1, 1, 5, 0.00,60.00,Sunday
75,48278324.98367827
111,3861201.791338584
543,33399901.5013581
1821,48278324.98367827
2077,6791184.0
2,1, 7, 1, 1, 6, 0.00,60.00,Sunday
75,147666824.35294888
111,4950671.375753559
543,41385398.90873409
1821,147666824.3529489
2077,6791184.0
2,1, 7, 1, 1, 7, 0.00,60.00,Sunday
75,208969469.29977495
111,5189159.43383782
543,41385398.90873409
1821,208969469.29977495
2077,6791183.999999999
2,1, 7, 1, 1, 8, 0.00,60.00,Sunday
75,199482635.1635583
111,5173573.547439723
543,41385398.90873409
1821,199482635.1635583
2077,6791184.0
2,1, 7, 1, 1, 9, 0.00,60.00,Sunday
75,209149547.20594485
111,5173573.547439723
543,41385398.90873409
1821,209149547.20594488
2077,6791183.999999999
2,1, 7, 1, 1,10, 0.00,60.00,Sunday
75,233323388.16843657
111,5173573.547439723
543,41385398.90873409
1821,233323388.1684366
2077,6791183.999999999
2,1, 7, 1, 1,11, 0.00,60.00,Sunday
75,197057766.88275469
111,5173573.547439723
543,41385398.90873409
1821,197057766.8827547
2077,6791184.0
2,1, 7, 1, 1,12, 0.00,60.00,Sunday
75,120343924.16330859
111,5173573.547439723
543,41385398.90873409
1821,120343924.1633086
2077,6791184.0
2,1, 7, 1, 1,13, 0.00,60.00,Sunday
75,196604407.52602179
111,5173573.547439723
543,41385398.90873409
1821,196604407.52602179
2077,6791183.999999999
2,1, 7, 1, 1,14, 0.00,60.00,Sunday
75,190439444.19402088
111,5173573.547439723
543,41385398.90873409
1821,190439444.19402088
2077,6791184.0
2,1, 7, 1, 1,15, 0.00,60.00,Sunday
75,192331767.1362247
111,5173573.547439723
543,41385398.90873409
1821,192331767.1362247
2077,6791184.0
2,1, 7, 1, 1,16, 0.00,60.00,Sunday
75,266100670.367342
111,5173573.547439723
543,41385398.90873409
1821,266100670.36734198
2077,6791184.0
2,1, 7, 1, 1,17, 0.00,60.00,Sunday
75,236733257.40049193
111,5173573.547439723
543,41385398.90873409
1821,236733257.4004919
2077,6791184.0
2,1, 7, 1, 1,18, 0.00,60.00,Sunday
75,189516060.48271279
111,4352211.200979038
543,33399901.5013581
1821,189516060.48271279
2077,6791184.0
2,1, 7, 1, 1,19, 0.00,60.00,Sunday
75,226334434.23642005
111,3815601.6479500595
543,33399901.5013581
1821,226334434.23642005
2077,6791184.0
2,1, 7, 1, 1,20, 0.00,60.00,Sunday
75,126779164.14042796
111,3953587.2070641166
543,33399901.5013581
1821,126779164.14042799
2077,6791184.0
2,1, 7, 1, 1,21, 0.00,60.00,Sunday
75,48904615.70955594
111,3861201.791338584
543,33399901.5013581
1821,48904615.70955593
2077,6791184.0
2,1, 7, 1, 1,22, 0.00,60.00,Sunday
75,48904615.70955594
111,3861201.791338584
543,33399901.5013581
1821,48904615.70955593
2077,6791184.0
2,1, 7, 1, 1,23, 0.00,60.00,Sunday
75,48904615.70955594
111,3861201.791338584
543,33399901.5013581
1821,48904615.70955593
2077,6791184.0
2,1, 7, 1, 1,24, 0.00,60.00,Sunday
75,46359235.70955594
111,3861201.791338584
543,33399901.5013581
1821,46359235.70955593
2077,6791184.0
2,2, 7, 2, 1, 1, 0.00,60.00,Monday
75,57609860.11373618
111,3861201.791338584
543,44533202.00181078
1821,57609860.11373618
2077,6791184.0
2,2, 7, 2, 1, 2, 0.00,60.00,Monday
75,57609860.11373618
111,3861201.791338584
543,44533202.00181078
1821,57609860.11373618
2077,6791184.0
2,2, 7, 2, 1, 3, 0.00,60.00,Monday
75,57609860.11373618
111,3861201.791338584
543,44533202.00181078
1821,57609860.11373618
2077,6791184.0
2,2, 7, 2, 1, 4, 0.00,60.00,Monday
75,57609860.11373618
111,3861201.791338584
543,44533202.00181078
1821,57609860.11373618
2077,6791184.0
2,2, 7, 2, 1, 5, 0.00,60.00,Monday
75,53364290.11373618
111,3861201.791338584
543,44533202.00181078
1821,53364290.11373618
2077,6791184.0
2,2, 7, 2, 1, 6, 0.00,60.00,Monday
75,163760108.7288497
111,8843697.577141025
543,55180531.87831212
1821,163760108.7288497
2077,6791184.0
2,2, 7, 2, 1, 7, 0.00,60.00,Monday
75,298378826.0891146
111,31041441.284638365
543,95796493.41677365
1821,298378826.0891146
2077,6791184.0
2,2, 7, 2, 1, 8, 0.00,60.00,Monday
75,484648050.97432878
111,93124323.85391507
543,204227663.7591693
1821,484648050.97432878
2077,6791184.0
2,2, 7, 2, 1, 9, 0.00,60.00,Monday
75,478169315.9239488
111,93124323.85391507
543,174055806.61631219
1821,478169315.9239488
2077,6791184.0
2,2, 7, 2, 1,10, 0.00,60.00,Monday
75,506395348.34343108
111,93124323.85391507
543,167093070.35257594
1821,506395348.343431
2077,6791184.0
2,2, 7, 2, 1,11, 0.00,60.00,Monday
75,534578485.6982415
111,93124323.85391507
543,174055806.61631219
1821,534578485.6982415
2077,11386151.29051562
2,2, 7, 2, 1,12, 0.00,60.00,Monday
75,547425618.8374928
111,93124323.85391507
543,177667514.30607478
1821,547425618.8374927
2077,25872775.75293678
2,2, 7, 2, 1,13, 0.00,60.00,Monday
75,558418632.2038121
111,93124323.85391507
543,179858086.8360924
1821,558418632.203812
2077,25663615.737083809
2,2, 7, 2, 1,14, 0.00,60.00,Monday
75,551767786.0773153
111,93124323.85391507
543,167093070.35257594
1821,551767786.0773153
2077,15577899.55402785
2,2, 7, 2, 1,15, 0.00,60.00,Monday
75,562989983.4579197
111,93124323.85391507
543,167093070.35257594
1821,562989983.4579196
2077,15516529.978022486
2,2, 7, 2, 1,16, 0.00,60.00,Monday
75,579545406.5686293
111,93124323.85391507
543,177537174.74818034
1821,579545406.568629
2077,20407663.154512749
2,2, 7, 2, 1,17, 0.00,60.00,Monday
75,505480970.47336497
111,51735735.47439728
543,140923939.57316489
1821,505480970.473365
2077,11043543.289925348
2,2, 7, 2, 1,18, 0.00,60.00,Monday
75,431629560.06360748
111,31077694.462052164
543,69106004.40578464
1821,431629560.06360748
2077,10998611.502366668
2,2, 7, 2, 1,19, 0.00,60.00,Monday
75,441576448.4989495
111,32566998.5164366
543,59822356.05413629
1821,441576448.49894949
2077,6791184.0
2,2, 7, 2, 1,20, 0.00,60.00,Monday
75,371695675.0750207
111,25995717.586298039
543,59822356.05413629
1821,371695675.07502076
2077,10927171.745135524
2,2, 7, 2, 1,21, 0.00,60.00,Monday
75,303553551.2054233
111,26303943.895732467
543,55180531.87831212
1821,303553551.2054233
2077,6791184.0
2,2, 7, 2, 1,22, 0.00,60.00,Monday
75,80271371.63626296
111,13151971.947866233
543,55180531.87831212
1821,80271371.63626296
2077,6791184.0
2,2, 7, 2, 1,23, 0.00,60.00,Monday
75,73691760.40172555
111,6575985.9739331169
543,55180531.87831212
1821,73691760.40172553
2077,6791184.0
2,2, 7, 2, 1,24, 0.00,60.00,Monday
75,58551584.40070834
111,4802369.727932371
543,44533202.00181078
1821,58551584.40070834
2077,6791184.0
2,3, 7, 3, 1, 1, 0.00,60.00,Tuesday
75,57609860.11373618
111,3861201.791338584
543,44533202.00181078
1821,57609860.11373618
2077,6791184.0
2,3, 7, 3, 1, 2, 0.00,60.00,Tuesday
75,57609860.11373618
111,3861201.791338584
543,44533202.00181078
1821,57609860.11373618
2077,6791184.0
2,3, 7, 3, 1, 3, 0.00,60.00,Tuesday
75,57609860.11373618
111,3861201.791338584
543,44533202.00181078
1821,57609860.11373618
2077,6791184.0
2,3, 7, 3, 1, 4, 0.00,60.00,Tuesday
75,57609860.11373618
111,3861201.791338584
543,44533202.00181078
1821,57609860.11373618
2077,6791184.0
2,3, 7, 3, 1, 5, 0.00,60.00,Tuesday
75,53364290.11373618
111,3861201.791338584
543,44533202.00181078
1821,53364290.11373618
2077,6791184.0
2,3, 7, 3, 1, 6, 0.00,60.00,Tuesday
75,132951384.73432687
111,9209764.315673132
543,55180531.87831212
1821,132951384.7343269
2077,6791184.0
2,3, 7, 3, 1, 7, 0.00,60.00,Tuesday
75,358501918.69638738
111,31608675.09207168
543,95796493.41677365
1821,358501918.69638738
2077,60700163.84641287
2,3, 7, 3, 1, 8, 0.00,60.00,Tuesday
75,453093710.9969816
111,93124323.85391507
543,204227663.7591693
1821,453093710.9969816
2077,33897300.85304611
2,3, 7, 3, 1, 9, 0.00,60.00,Tuesday
75,416471040.7928461
111,93124323.85391507
543,174055806.61631219
1821,416471040.7928461
2077,6791184.0
2,3, 7, 3, 1,10, 0.00,60.00,Tuesday
75,430594297.6446272
111,93124323.85391507
543,167093070.35257594
1821,430594297.6446272
2077,6791184.0
2,3, 7, 3, 1,11, 0.00,60.00,Tuesday
75,464245172.70716366
111,93124323.85391507
543,174055806.61631219
1821,464245172.70716366
2077,15983369.784729125
2,3, 7, 3, 1,12, 0.00,60.00,Tuesday
75,519965667.353446
111,93124323.85391507
543,177667514.30607478
1821,519965667.353446
2077,25877887.63984409
2,3, 7, 3, 1,13, 0.00,60.00,Tuesday
75,522238256.5837308
111,93124323.85391507
543,179858086.8360924
1821,522238256.5837308
2077,25669347.612180573
2,3, 7, 3, 1,14, 0.00,60.00,Tuesday
75,514600540.0544284
111,93124323.85391507
543,167093070.35257594
1821,514600540.0544284
2077,15551812.7505995
2,3, 7, 3, 1,15, 0.00,60.00,Tuesday
75,534673035.89677658
111,93124323.85391507
543,167093070.35257594
1821,534673035.89677646
2077,15519478.314596117
2,3, 7, 3, 1,16, 0.00,60.00,Tuesday
75,548953551.208188
111,93124323.85391507
543,177537174.74818034
1821,548953551.2081879
2077,20408156.466213827
2,3, 7, 3, 1,17, 0.00,60.00,Tuesday
75,501252110.3912462
111,51735735.47439728
543,140923939.57316489
1821,501252110.39124628
2077,11051375.848017447
2,3, 7, 3, 1,18, 0.00,60.00,Tuesday
75,446010672.17005017
111,31053525.67710963
543,69106004.40578464
1821,446010672.17005017
2077,10982643.024675528
2,3, 7, 3, 1,19, 0.00,60.00,Tuesday
75,431224347.10883876
111,32247563.51753416
543,59822356.05413629
1821,431224347.1088388
2077,6791184.0
2,3, 7, 3, 1,20, 0.00,60.00,Tuesday
75,375951785.4146807
111,26041949.665500828
543,59822356.05413629
1821,375951785.4146808
2077,6791184.0
2,3, 7, 3, 1,21, 0.00,60.00,Tuesday
75,259228790.09628324
111,26303943.895732467
543,55180531.87831212
1821,259228790.09628318
2077,6791184.0
2,3, 7, 3, 1,22, 0.00,60.00,Tuesday
75,80271371.63626296
111,13151971.947866233
543,55180531.87831212
1821,80271371.63626296
2077,6791184.0
2,3, 7, 3, 1,23, 0.00,60.00,Tuesday
75,73691760.40172555
111,6575985.9739331169
543,55180531.87831212
1821,73691760.40172553
2077,6791184.0
2,3, 7, 3, 1,24, 0.00,60.00,Tuesday
75,58551584.40070834
111,4802369.727932371
543,44533202.00181078
1821,58551584.40070834
2077,6791184.0
2,4, 7, 4, 1, 1, 0.00,60.00,Holiday
75,46359235.70955594
111,3861201.791338584
543,33399901.5013581
1821,46359235.70955593
2077,6791184.0
2,4, 7, 4, 1, 2, 0.00,60.00,Holiday
75,46359235.70955594
111,3861201.791338584
543,33399901.5013581
1821,46359235.70955593
2077,6791184.0
2,4, 7, 4, 1, 3, 0.00,60.00,Holiday
75,46359235.70955594
111,3861201.791338584
543,33399901.5013581
1821,46359235.70955593
2077,6791184.0
2,4, 7, 4, 1, 4, 0.00,60.00,Holiday
75,46359235.70955594
111,3861201.791338584
543,33399901.5013581
1821,46359235.70955593
2077,6791184.0
2,4, 7, 4, 1, 5, 0.00,60.00,Holiday
75,42113665.70955594
111,3861201.791338584
543,33399901.5013581
1821,42113665.70955594
2077,6791184.0
2,4, 7, 4, 1, 6, 0.00,60.00,Holiday
75,47009393.55446322
111,4911708.241252566
543,41385398.90873409
1821,47009393.554463218
2077,6791184.0
2,4, 7, 4, 1, 7, 0.00,60.00,Holiday
75,74198255.26995045
111,5173573.547439723
543,41385398.90873409
1821,74198255.26995045
2077,6791184.0
2,4, 7, 4, 1, 8, 0.00,60.00,Holiday
75,123902817.50475624
111,5173573.547439723
543,41385398.90873409
1821,123902817.50475623
2077,6791184.0
2,4, 7, 4, 1, 9, 0.00,60.00,Holiday
75,137383741.93413524
111,5173573.547439723
543,41385398.90873409
1821,137383741.93413524
2077,6791184.0
2,4, 7, 4, 1,10, 0.00,60.00,Holiday
75,132473983.31387371
111,5173573.547439723
543,41385398.90873409
1821,132473983.3138737
2077,6791184.0
2,4, 7, 4, 1,11, 0.00,60.00,Holiday
75,92398366.40193714
111,5173573.547439723
543,41385398.90873409
1821,92398366.40193713
2077,6791184.0
2,4, 7, 4, 1,12, 0.00,60.00,Holiday
75,47271447.37041931
111,5173573.547439723
543,41385398.90873409
1821,47271447.37041931
2077,6791184.0
2,4, 7, 4, 1,13, 0.00,60.00,Holiday
75,59284020.49887867
111,5173573.547439723
543,41385398.90873409
1821,59284020.49887867
2077,6791184.0
2,4, 7, 4, 1,14, 0.00,60.00,Holiday
75,167161217.38543508
111,5173573.547439723
543,41385398.90873409
1821,167161217.38543505
2077,6791183.999999999
2,4, 7, 4, 1,15, 0.00,60.00,Holiday
75,193703253.08774028
111,5173573.547439723
543,41385398.90873409
1821,193703253.08774028
2077,6791184.0
2,4, 7, 4, 1,16, 0.00,60.00,Holiday
75,157322968.78772877
111,5173573.547439723
543,41385398.90873409
1821,157322968.78772874
2077,6791184.0
2,4, 7, 4, 1,17, 0.00,60.00,Holiday
75,47292759.14561606
111,5194881.498313956
543,41385398.90873409
1821,47292759.14561606
2077,6791184.0
2,4, 7, 4, 1,18, 0.00,60.00,Holiday
75,38414164.52786667
111,4407048.284462982
543,33399901.5013581
1821,38414164.52786667
2077,6791184.0
2,4, 7, 4, 1,19, 0.00,60.00,Holiday
75,37871545.10512692
111,3864651.4295380108
543,33399901.5013581
1821,37871545.10512692
2077,6791184.0
2,4, 7, 4, 1,20, 0.00,60.00,Holiday
75,46145485.70955594
111,3861201.791338584
543,33399901.5013581
1821,46145485.70955593
2077,6791184.0
2,4, 7, 4, 1,21, 0.00,60.00,Holiday
75,48904615.70955594
111,3861201.791338584
543,33399901.5013581
1821,48904615.70955593
2077,6791184.0
2,4, 7, 4, 1,22, 0.00,60.00,Holiday
75,48904615.70955594
111,3861201.791338584
543,33399901.5013581
1821,48904615.70955593
2077,6791184.0
2,4, 7, 4, 1,23, 0.00,60.00,Holiday
75,48904615.70955594
111,3861201.791338584
543,33399901.5013581
1821,48904615.70955593
2077,6791184.0
2,4, 7, 4, 1,24, 0.00,60.00,Holiday
75,46359235.70955594
111,3861201.791338584
543,33399901.5013581
1821,46359235.70955593
2077,6791184.0
2,5, 7, 5, 1, 1, 0.00,60.00,Thursday
75,57609860.11373618
111,3861201.791338584
543,44533202.00181078
1821,57609860.11373618
2077,6791184.0
2,5, 7, 5, 1, 2, 0.00,60.00,Thursday
75,57609860.11373618
111,3861201.791338584
543,44533202.00181078
1821,57609860.11373618
2077,6791184.0
2,5, 7, 5, 1, 3, 0.00,60.00,Thursday
75,57609860.11373618
111,3861201.791338584
543,44533202.00181078
1821,57609860.11373618
2077,6791184.0
2,5, 7, 5, 1, 4, 0.00,60.00,Thursday
75,57609860.11373618
111,3861201.791338584
543,44533202.00181078
1821,57609860.11373618
2077,6791184.0
2,5, 7, 5, 1, 5, 0.00,60.00,Thursday
75,53364290.11373618
111,3861201.791338584
543,44533202.00181078
1821,53364290.11373618
2077,6791184.0
2,5, 7, 5, 1, 6, 0.00,60.00,Thursday
75,227221204.38752998
111,8936042.30367247
543,55180531.87831212
1821,227221204.38752998
2077,6791184.0
2,5, 7, 5, 1, 7, 0.00,60.00,Thursday
75,373723063.5000237
111,31041441.284638365
543,95796493.41677365
1821,373723063.5000237
2077,6791184.0
2,5, 7, 5, 1, 8, 0.00,60.00,Thursday
75,529085325.5606086
111,93124323.85391507
543,204227663.7591693
1821,529085325.5606086
2077,6791184.0
2,5, 7, 5, 1, 9, 0.00,60.00,Thursday
75,531448985.6337092
111,93124323.85391507
543,174055806.61631219
1821,531448985.6337093
2077,6791184.0
2,5, 7, 5, 1,10, 0.00,60.00,Thursday
75,524450151.6500252
111,93124323.85391507
543,167093070.35257594
1821,524450151.65002527
2077,6791184.0
2,5, 7, 5, 1,11, 0.00,60.00,Thursday
75,526714146.29710629
111,93124323.85391507
543,174055806.61631219
1821,526714146.2971062
2077,11387905.591109943
2,5, 7, 5, 1,12, 0.00,60.00,Thursday
75,560530625.0839859
111,93124323.85391507
543,177667514.30607478
1821,560530625.0839858
2077,25856880.880755474
2,5, 7, 5, 1,13, 0.00,60.00,Thursday
75,582497904.3976114
111,93124323.85391507
543,179858086.8360924
1821,582497904.3976114
2077,25645997.622758807
2,5, 7, 5, 1,14, 0.00,60.00,Thursday
75,558882074.4821706
111,93124323.85391507
543,167093070.35257594
1821,558882074.4821706
2077,15525737.80094368
2,5, 7, 5, 1,15, 0.00,60.00,Thursday
75,575067710.7639024
111,93124323.85391507
543,167093070.35257594
1821,575067710.7639022
2077,15510749.738079722
2,5, 7, 5, 1,16, 0.00,60.00,Thursday
75,565786096.4501965
111,93124323.85391507
543,177537174.74818034
1821,565786096.4501963
2077,20404501.040636645
2,5, 7, 5, 1,17, 0.00,60.00,Thursday
75,513493218.9006115
111,51735735.47439728
543,140923939.57316489
1821,513493218.9006115
2077,11049882.979211383
2,5, 7, 5, 1,18, 0.00,60.00,Thursday
75,448744256.6706126
111,31089778.854523429
543,69106004.40578464
1821,448744256.6706127
2077,10972967.067091819
2,5, 7, 5, 1,19, 0.00,60.00,Thursday
75,427792398.6607468
111,32058964.83706893
543,59822356.05413629
1821,427792398.6607468
2077,6791184.0
2,5, 7, 5, 1,20, 0.00,60.00,Thursday
75,333611390.6810581
111,25960734.005189159
543,59822356.05413629
1821,333611390.68105819
2077,10926875.181747843
2,5, 7, 5, 1,21, 0.00,60.00,Thursday
75,237908602.08054299
111,26303943.895732467
543,55180531.87831212
1821,237908602.08054299
2077,6791184.0
2,5, 7, 5, 1,22, 0.00,60.00,Thursday
75,80271371.63626296
111,13151971.947866233
543,55180531.87831212
1821,80271371.63626296
2077,6791184.0
2,5, 7, 5, 1,23, 0.00,60.00,Thursday
75,73691760.40172555
111,6575985.9739331169
543,55180531.87831212
1821,73691760.40172553
2077,6791184.0
2,5, 7, 5, 1,24, 0.00,60.00,Thursday
75,58551584.40070834
111,4802369.727932371
543,44533202.00181078
1821,58551584.40070834
2077,6791184.0
2,6, 7, 6, 1, 1, 0.00,60.00,Friday
75,57609860.11373618
111,3861201.791338584
543,44533202.00181078
1821,57609860.11373618
2077,6791184.0
2,6, 7, 6, 1, 2, 0.00,60.00,Friday
75,57609860.11373618
111,3861201.791338584
543,44533202.00181078
1821,57609860.11373618
2077,6791184.0
2,6, 7, 6, 1, 3, 0.00,60.00,Friday
75,57609860.11373618
111,3861201.791338584
543,44533202.00181078
1821,57609860.11373618
2077,6791184.0
2,6, 7, 6, 1, 4, 0.00,60.00,Friday
75,57609860.11373618
111,3861201.791338584
543,44533202.00181078
1821,57609860.11373618
2077,6791184.0
2,6, 7, 6, 1, 5, 0.00,60.00,Friday
75,53364290.11373618
111,3861201.791338584
543,44533202.00181078
1821,53364290.11373618
2077,6791184.0
2,6, 7, 6, 1, 6, 0.00,60.00,Friday
75,271283137.51058486
111,8870841.483339819
543,55180531.87831212
1821,271283137.51058486
2077,6791184.0
2,6, 7, 6, 1, 7, 0.00,60.00,Friday
75,514870643.4757133
111,31041441.284638365
543,95796493.41677365
1821,514870643.47571328
2077,6791184.0
2,6, 7, 6, 1, 8, 0.00,60.00,Friday
75,607561389.9833855
111,93124323.85391507
543,204227663.7591693
1821,607561389.9833853
2077,6791184.0
2,6, 7, 6, 1, 9, 0.00,60.00,Friday
75,565959138.2406118
111,93124323.85391507
543,174055806.61631219
1821,565959138.2406118
2077,6791184.0
2,6, 7, 6, 1,10, 0.00,60.00,Friday
75,550138302.9590452
111,93124323.85391507
543,167093070.35257594
1821,550138302.959045
2077,6791184.0
2,6, 7, 6, 1,11, 0.00,60.00,Friday
75,567451447.890468
111,93124323.85391507
543,174055806.61631219
1821,567451447.890468
2077,15968515.929543699
2,6, 7, 6, 1,12, 0.00,60.00,Friday
75,583646786.9278371
111,93124323.85391507
543,177667514.30607478
1821,583646786.9278371
2077,25869164.55024616
2,6, 7, 6, 1,13, 0.00,60.00,Friday
75,625048529.3323695
111,93124323.85391507
543,179858086.8360924
1821,625048529.3323693
2077,23190394.544551679
2,6, 7, 6, 1,14, 0.00,60.00,Friday
75,583389730.7771835
111,93124323.85391507
543,167093070.35257594
1821,583389730.7771835
2077,17876575.483354305
2,6, 7, 6, 1,15, 0.00,60.00,Friday
75,609571307.6559843
111,93124323.85391507
543,167093070.35257594
1821,609571307.6559842
2077,15524357.445862722
2,6, 7, 6, 1,16, 0.00,60.00,Friday
75,608625729.2529298
111,93124323.85391507
543,177537174.74818034
1821,608625729.2529297
2077,19389890.928225295
2,6, 7, 6, 1,17, 0.00,60.00,Friday
75,533704487.0514777
111,51735735.47439728
543,140923939.57316489
1821,533704487.0514777
2077,12024563.365175415
2,6, 7, 6, 1,18, 0.00,60.00,Friday
75,465440710.5950209
111,31089778.854523429
543,69106004.40578464
1821,465440710.59502097
2077,10963921.693927974
2,6, 7, 6, 1,19, 0.00,60.00,Friday
75,490054731.9442402
111,32741947.93145877
543,59822356.05413629
1821,490054731.9442401
2077,6791184.0
2,6, 7, 6, 1,20, 0.00,60.00,Friday
75,405049762.80148527
111,26108387.809161135
543,59822356.05413629
1821,405049762.8014853
2077,6791184.0
2,6, 7, 6, 1,21, 0.00,60.00,Friday
75,312810630.5921049
111,26303943.895732467
543,55180531.87831212
1821,312810630.592105
2077,6791184.0
2,6, 7, 6, 1,22, 0.00,60.00,Friday
75,80271371.63626296
111,13151971.947866233
543,55180531.87831212
1821,80271371.63626296
2077,6791184.0
2,6, 7, 6, 1,23, 0.00,60.00,Friday
75,73691760.40172555
111,6575985.9739331169
543,55180531.87831212
1821,73691760.40172553
2077,6791184.0
2,6, 7, 6, 1,24, 0.00,60.00,Friday
75,58551584.40070834
111,4802369.727932371
543,44533202.00181078
1821,58551584.40070834
2077,6791184.0
2,7, 7, 7, 1, 1, 0.00,60.00,Saturday
75,46359235.70955594
111,3861201.791338584
543,33399901.5013581
1821,46359235.70955593
2077,6791184.0
2,7, 7, 7, 1, 2, 0.00,60.00,Saturday
75,46359235.70955594
111,3861201.791338584
543,33399901.5013581
1821,46359235.70955593
2077,6791184.0
2,7, 7, 7, 1, 3, 0.00,60.00,Saturday
75,46359235.70955594
111,3861201.791338584
543,33399901.5013581
1821,46359235.70955593
2077,6791184.0
2,7, 7, 7, 1, 4, 0.00,60.00,Saturday
75,46359235.70955594
111,3861201.791338584
543,33399901.5013581
1821,46359235.70955593
2077,6791184.0
2,7, 7, 7, 1, 5, 0.00,60.00,Saturday
75,42113665.70955594
111,3861201.791338584
543,33399901.5013581
1821,42113665.70955594
2077,6791184.0
2,7, 7, 7, 1, 6, 0.00,60.00,Saturday
75,254641102.77757598
111,8864478.759005152
543,55180531.87831212
1821,254641102.77757604
2077,6791184.0
2,7, 7, 7, 1, 7, 0.00,60.00,Saturday
75,455548259.7533412
111,10347147.094879447
543,73747828.58160882
1821,455548259.75334116
2077,6791184.0
2,7, 7, 7, 1, 8, 0.00,60.00,Saturday
75,512736006.0326718
111,31041441.284638365
543,85222049.46327476
1821,512736006.0326718
2077,6791184.0
2,7, 7, 7, 1, 9, 0.00,60.00,Saturday
75,476959832.7122535
111,31041441.284638365
543,93345241.77096707
1821,476959832.7122535
2077,6791184.0
2,7, 7, 7, 1,10, 0.00,60.00,Saturday
75,467564051.34445717
111,31041441.284638365
543,89863873.63909894
1821,467564051.3444571
2077,6791184.0
2,7, 7, 7, 1,11, 0.00,60.00,Saturday
75,465516317.5444218
111,31041441.284638365
543,97987065.94679125
1821,465516317.54442176
2077,6791184.0
2,7, 7, 7, 1,12, 0.00,60.00,Saturday
75,461093767.65185877
111,15520720.642319182
543,72652542.31660003
1821,461093767.6518588
2077,6791184.0
2,7, 7, 7, 1,13, 0.00,60.00,Saturday
75,489452579.5871704
111,15520720.642319182
543,63368893.96495168
1821,489452579.5871705
2077,6791184.0
2,7, 7, 7, 1,14, 0.00,60.00,Saturday
75,474649645.3129376
111,15520720.642319182
543,57566613.74517146
1821,474649645.3129377
2077,6791184.0
2,7, 7, 7, 1,15, 0.00,60.00,Saturday
75,456624537.6656482
111,15520720.642319182
543,52924789.569347288
1821,456624537.6656482
2077,6791184.0
2,7, 7, 7, 1,16, 0.00,60.00,Saturday
75,483859136.52601626
111,15520720.642319182
543,54085245.61330333
1821,483859136.5260163
2077,6791184.0
2,7, 7, 7, 1,17, 0.00,60.00,Saturday
75,324223869.13491138
111,5173573.547439723
543,48348135.17247035
1821,324223869.13491138
2077,6791184.0
2,7, 7, 7, 1,18, 0.00,60.00,Saturday
75,47271447.37041931
111,5173573.547439723
543,41385398.90873409
1821,47271447.37041931
2077,6791184.0
2,7, 7, 7, 1,19, 0.00,60.00,Saturday
75,38411598.31197276
111,4404486.135902858
543,33399901.5013581
1821,38411598.31197277
2077,6791184.0
2,7, 7, 7, 1,20, 0.00,60.00,Saturday
75,46145485.70955594
111,3861201.791338584
543,33399901.5013581
1821,46145485.70955593
2077,6791184.0
2,7, 7, 7, 1,21, 0.00,60.00,Saturday
75,48904615.70955594
111,3861201.791338584
543,33399901.5013581
1821,48904615.70955593
2077,6791184.0
2,7, 7, 7, 1,22, 0.00,60.00,Saturday
75,48904615.70955594
111,3861201.791338584
543,33399901.5013581
1821,48904615.70955593
2077,6791184.0
2,7, 7, 7, 1,23, 0.00,60.00,Saturday
75,48904615.70955594
111,3861201.791338584
543,33399901.5013581
1821,48904615.70955593
2077,6791184.0
2,7, 7, 7, 1,24, 0.00,60.00,Saturday
75,46359235.70955594
111,3861201.791338584
543,33399901.5013581
1821,46359235.70955593
2077,6791184.0
2,8, 7, 8, 1, 1, 0.00,60.00,Sunday
75,46359235.70955594
111,3861201.791338584
543,33399901.5013581
1821,46359235.70955593
2077,6791184.0
2,8, 7, 8, 1, 2, 0.00,60.00,Sunday
75,46359235.70955594
111,3861201.791338584
543,33399901.5013581
1821,46359235.70955593
2077,6791184.0
2,8, 7, 8, 1, 3, 0.00,60.00,Sunday
75,46359235.70955594
111,3861201.791338584
543,33399901.5013581
1821,46359235.70955593
2077,6791184.0
2,8, 7, 8, 1, 4, 0.00,60.00,Sunday
75,46359235.70955594
111,3861201.791338584
543,33399901.5013581
1821,46359235.70955593
2077,6791184.0
2,8, 7, 8, 1, 5, 0.00,60.00,Sunday
75,42113665.70955594
111,3861201.791338584
543,33399901.5013581
1821,42113665.70955594
2077,6791184.0
2,8, 7, 8, 1, 6, 0.00,60.00,Sunday
75,47117291.91407901
111,5019575.47917415
543,41385398.90873409
1821,47117291.91407901
2077,6791184.0
2,8, 7, 8, 1, 7, 0.00,60.00,Sunday
75,47277496.01485498
111,5179615.347335821
543,41385398.90873409
1821,47277496.01485497
2077,6791184.0
2,8, 7, 8, 1, 8, 0.00,60.00,Sunday
75,154624364.63369329
111,5173573.547439723
543,41385398.90873409
1821,154624364.63369329
2077,6791184.0
2,8, 7, 8, 1, 9, 0.00,60.00,Sunday
75,136772514.69539017
111,5173573.547439723
543,41385398.90873409
1821,136772514.69539014
2077,6791184.0
2,8, 7, 8, 1,10, 0.00,60.00,Sunday
75,109966752.91345307
111,5173573.547439723
543,41385398.90873409
1821,109966752.91345304
2077,6791184.0
2,8, 7, 8, 1,11, 0.00,60.00,Sunday
75,109393325.65865273
111,5173573.547439723
543,41385398.90873409
1821,109393325.65865273
2077,6791183.999999999
2,8, 7, 8, 1,12, 0.00,60.00,Sunday
75,105666878.23937425
111,5173573.547439723
543,41385398.90873409
1821,105666878.23937424
2077,6791184.0
2,8, 7, 8, 1,13, 0.00,60.00,Sunday
75,123130956.89005952
111,5173573.547439723
543,41385398.90873409
1821,123130956.89005955
2077,6791183.999999999
2,8, 7, 8, 1,14, 0.00,60.00,Sunday
75,47271447.37041931
111,5173573.547439723
543,41385398.90873409
1821,47271447.37041931
2077,6791184.0
2,8, 7, 8, 1,15, 0.00,60.00,Sunday
75,47271447.37041931
111,5173573.547439723
543,41385398.90873409
1821,47271447.37041931
2077,6791184.0
2,8, 7, 8, 1,16, 0.00,60.00,Sunday
75,136429662.2402783
111,5173573.547439723
543,41385398.90873409
1821,136429662.24027828
2077,6791184.0
2,8, 7, 8, 1,17, 0.00,60.00,Sunday
75,59546974.36122439
111,5179615.743675357
543,41385398.90873409
1821,59546974.36122438
2077,6791184.0
2,8, 7, 8, 1,18, 0.00,60.00,Sunday
75,131000768.53701893
111,4352830.555745966
543,33399901.5013581
1821,131000768.53701893
2077,6791184.0
2,8, 7, 8, 1,19, 0.00,60.00,Sunday
75,37854549.458962
111,3847663.1600373408
543,33399901.5013581
1821,37854549.458962
2077,6791184.0
2,8, 7, 8, 1,20, 0.00,60.00,Sunday
75,46145488.11055954
111,3861201.791338584
543,33399901.5013581
1821,46145488.11055953
2077,6791184.0
2,8, 7, 8, 1,21, 0.00,60.00,Sunday
75,48904615.70955594
111,3861201.791338584
543,33399901.5013581
1821,48904615.70955593
2077,6791184.0
2,8, 7, 8, 1,22, 0.00,60.00,Sunday
75,48904615.70955594
111,3861201.791338584
543,33399901.5013581
1821,48904615.70955593
2077,6791184.0
2,8, 7, 8, 1,23, 0.00,60.00,Sunday
75,48904615.70955594
111,3861201.791338584
543,33399901.5013581
1821,48904615.70955593
2077,6791184.0
2,8, 7, 8, 1,24, 0.00,60.00,Sunday
75,46359235.70955594
111,3861201.791338584
543,33399901.5013581
1821,46359235.70955593
2077,6791184.0
2,9, 7, 9, 1, 1, 0.00,60.00,Monday
75,57609860.11373618
111,3861201.791338584
543,44533202.00181078
1821,57609860.11373618
2077,6791184.0
2,9, 7, 9, 1, 2, 0.00,60.00,Monday
75,57609860.11373618
111,3861201.791338584
543,44533202.00181078
1821,57609860.11373618
2077,6791184.0
2,9, 7, 9, 1, 3, 0.00,60.00,Monday
75,57609860.11373618
111,3861201.791338584
543,44533202.00181078
1821,57609860.11373618
2077,6791184.0
2,9, 7, 9, 1, 4, 0.00,60.00,Monday
75,57609860.11373618
111,3861201.791338584
543,44533202.00181078
1821,57609860.11373618
2077,6791184.0
2,9, 7, 9, 1, 5, 0.00,60.00,Monday
75,53364290.11373618
111,3861201.791338584
543,44533202.00181078
1821,53364290.11373618
2077,6791184.0
2,9, 7, 9, 1, 6, 0.00,60.00,Monday
75,216735732.39243735
111,8874869.349937216
543,55180531.87831212
1821,216735732.39243738
2077,6791184.0
2,9, 7, 9, 1, 7, 0.00,60.00,Monday
75,432302063.77221778
111,31053524.884430559
543,95796493.41677365
1821,432302063.77221778
2077,6791184.0
2,9, 7, 9, 1, 8, 0.00,60.00,Monday
75,590135049.2082334
111,93124323.85391507
543,204227663.7591693
1821,590135049.2082334
2077,6791184.0
2,9, 7, 9, 1, 9, 0.00,60.00,Monday
75,541358568.5958142
111,93124323.85391507
543,174055806.61631219
1821,541358568.5958142
2077,6791184.0
2,9, 7, 9, 1,10, 0.00,60.00,Monday
75,529744544.25269058
111,93124323.85391507
543,167093070.35257594
1821,529744544.25269058
2077,6791184.0
2,9, 7, 9, 1,11, 0.00,60.00,Monday
75,556857916.4765767
111,93124323.85391507
543,174055806.61631219
1821,556857916.4765766
2077,11380232.007126514
2,9, 7, 9, 1,12, 0.00,60.00,Monday
75,580815625.5619075
111,93124323.85391507
543,177667514.30607478
1821,580815625.5619075
2077,25843874.898349655
2,9, 7, 9, 1,13, 0.00,60.00,Monday
75,620221683.8242799
111,93124323.85391507
543,179858086.8360924
1821,620221683.8242797
2077,25621326.93190771
2,9, 7, 9, 1,14, 0.00,60.00,Monday
75,605900868.095671
111,93124323.85391507
543,167093070.35257594
1821,605900868.0956709
2077,15536791.260391687