Program Version,EnergyPlus, Version 9.3.0-baff08990c, YMD=2021.12.19 06:02
1,5,Environment Title[],Latitude[deg],Longitude[deg],Time Zone[],Elevation[m]
2,8,Day of Simulation[],Month[],Day of Month[],DST Indicator[1=yes 0=no],Hour[],StartMinute[],EndMinute[],DayType
3,5,Cumulative Day of Simulation[],Month[],Day of Month[],DST Indicator[1=yes 0=no],DayType  ! When Daily Report Variables Requested
4,2,Cumulative Days of Simulation[],Month[]  ! When Monthly Report Variables Requested
5,1,Cumulative Days of Simulation[] ! When Run Period Report Variables Requested
6,1,Calendar Year of Simulation[] ! When Annual Report Variables Requested
7,1,Environment,Site Outdoor Air Drybulb Temperature [C] !TimeStep
9,1,Environment,Site Direct Solar Radiation Rate per Area [W/m2] !TimeStep
29,1,CORE_BOTTOM,Zone People Occupant Count [] !TimeStep
32,1,CORE_MID,Zone People Occupant Count [] !TimeStep
35,1,CORE_TOP,Zone People Occupant Count [] !TimeStep
38,1,PERIMETER_TOP_ZN_3,Zone People Occupant Count [] !TimeStep
41,1,PERIMETER_TOP_ZN_2,Zone People Occupant Count [] !TimeStep
44,1,PERIMETER_TOP_ZN_1,Zone People Occupant Count [] !TimeStep
47,1,PERIMETER_TOP_ZN_4,Zone People Occupant Count [] !TimeStep
50,1,PERIMETER_BOT_ZN_3,Zone People Occupant Count [] !TimeStep
53,1,PERIMETER_BOT_ZN_2,Zone People Occupant Count [] !TimeStep
56,1,PERIMETER_BOT_ZN_1,Zone People Occupant Count [] !TimeStep
59,1,PERIMETER_BOT_ZN_4,Zone People Occupant Count [] !TimeStep
62,1,PERIMETER_MID_ZN_3,Zone People Occupant Count [] !TimeStep
65,1,PERIMETER_MID_ZN_2,Zone People Occupant Count [] !TimeStep
68,1,PERIMETER_MID_ZN_1,Zone People Occupant Count [] !TimeStep
71,1,PERIMETER_MID_ZN_4,Zone People Occupant Count [] !TimeStep
968,1,CORE_BOTTOM,Zone Air Temperature [C] !TimeStep
969,1,CORE_BOTTOM,Zone Air Relative Humidity [%] !TimeStep
1010,1,TOPFLOOR_PLENUM,Zone Air Temperature [C] !TimeStep
1011,1,TOPFLOOR_PLENUM,Zone Air Relative Humidity [%] !TimeStep
1052,1,MIDFLOOR_PLENUM,Zone Air Temperature [C] !TimeStep
1053,1,MIDFLOOR_PLENUM,Zone Air Relative Humidity [%] !TimeStep
1094,1,FIRSTFLOOR_PLENUM,Zone Air Temperature [C] !TimeStep
1095,1,FIRSTFLOOR_PLENUM,Zone Air Relative Humidity [%] !TimeStep
1136,1,CORE_MID,Zone Air Temperature [C] !TimeStep
1137,1,CORE_MID,Zone Air Relative Humidity [%] !TimeStep
1178,1,CORE_TOP,Zone Air Temperature [C] !TimeStep
1179,1,CORE_TOP,Zone Air Relative Humidity [%] !TimeStep
1220,1,PERIMETER_TOP_ZN_3,Zone Air Temperature [C] !TimeStep
1221,1,PERIMETER_TOP_ZN_3,Zone Air Relative Humidity [%] !TimeStep
1262,1,PERIMETER_TOP_ZN_2,Zone Air Temperature [C] !TimeStep
1263,1,PERIMETER_TOP_ZN_2,Zone Air Relative Humidity [%] !TimeStep
1304,1,PERIMETER_TOP_ZN_1,Zone Air Temperature [C] !TimeStep
1305,1,PERIMETER_TOP_ZN_1,Zone Air Relative Humidity [%] !TimeStep
1346,1,PERIMETER_TOP_ZN_4,Zone Air Temperature [C] !TimeStep
1347,1,PERIMETER_TOP_ZN_4,Zone Air Relative Humidity [%] !TimeStep
1388,1,PERIMETER_BOT_ZN_3,Zone Air Temperature [C] !TimeStep
1389,1,PERIMETER_BOT_ZN_3,Zone Air Relative Humidity [%] !TimeStep
1430,1,PERIMETER_BOT_ZN_2,Zone Air Temperature [C] !TimeStep
1431,1,PERIMETER_BOT_ZN_2,Zone Air Relative Humidity [%] !TimeStep
1472,1,PERIMETER_BOT_ZN_1,Zone Air Temperature [C] !TimeStep
1473,1,PERIMETER_BOT_ZN_1,Zone Air Relative Humidity [%] !TimeStep
1514,1,PERIMETER_BOT_ZN_4,Zone Air Temperature [C] !TimeStep
1515,1,PERIMETER_BOT_ZN_4,Zone Air Relative Humidity [%] !TimeStep
1556,1,PERIMETER_MID_ZN_3,Zone Air Temperature [C] !TimeStep
1557,1,PERIMETER_MID_ZN_3,Zone Air Relative Humidity [%] !TimeStep
1598,1,PERIMETER_MID_ZN_2,Zone Air Temperature [C] !TimeStep
1599,1,PERIMETER_MID_ZN_2,Zone Air Relative Humidity [%] !TimeStep
1640,1,PERIMETER_MID_ZN_1,Zone Air Temperature [C] !TimeStep
1641,1,PERIMETER_MID_ZN_1,Zone Air Relative Humidity [%] !TimeStep
1682,1,PERIMETER_MID_ZN_4,Zone Air Temperature [C] !TimeStep
1683,1,PERIMETER_MID_ZN_4,Zone Air Relative Humidity [%] !TimeStep
1868,1,Whole Building,Facility Total HVAC Electric Demand Power [W] !TimeStep
1869,1,Whole Building,Facility Total HVAC Electric Demand Power [W] !Hourly
2021,1,CORE_BOTTOM VAV BOX REHEAT COIL,Heating Coil Electric Energy [J] !TimeStep
2047,1,CORE_MID VAV BOX REHEAT COIL,Heating Coil Electric Energy [J] !TimeStep
2049,1,CORE_TOP VAV BOX REHEAT COIL,Heating Coil Electric Energy [J] !TimeStep
2051,1,PERIMETER_TOP_ZN_3 VAV BOX REHEAT COIL,Heating Coil Electric Energy [J] !TimeStep
2053,1,PERIMETER_TOP_ZN_2 VAV BOX REHEAT COIL,Heating Coil Electric Energy [J] !TimeStep
2055,1,PERIMETER_TOP_ZN_1 VAV BOX REHEAT COIL,Heating Coil Electric Energy [J] !TimeStep
2057,1,PERIMETER_TOP_ZN_4 VAV BOX REHEAT COIL,Heating Coil Electric Energy [J] !TimeStep
2059,1,PERIMETER_BOT_ZN_3 VAV BOX REHEAT COIL,Heating Coil Electric Energy [J] !TimeStep
2061,1,PERIMETER_BOT_ZN_2 VAV BOX REHEAT COIL,Heating Coil Electric Energy [J] !TimeStep
2063,1,PERIMETER_BOT_ZN_1 VAV BOX REHEAT COIL,Heating Coil Electric Energy [J] !TimeStep
2065,1,PERIMETER_BOT_ZN_4 VAV BOX REHEAT COIL,Heating Coil Electric Energy [J] !TimeStep
2067,1,PERIMETER_MID_ZN_3 VAV BOX REHEAT COIL,Heating Coil Electric Energy [J] !TimeStep
2069,1,PERIMETER_MID_ZN_2 VAV BOX REHEAT COIL,Heating Coil Electric Energy [J] !TimeStep
2071,1,PERIMETER_MID_ZN_1 VAV BOX REHEAT COIL,Heating Coil Electric Energy [J] !TimeStep
2073,1,PERIMETER_MID_ZN_4 VAV BOX REHEAT COIL,Heating Coil Electric Energy [J] !TimeStep
2614,1,PACU_VAV_BOT,Air System Electric Energy [J] !TimeStep
2617,1,PACU_VAV_MID,Air System Electric Energy [J] !TimeStep
2620,1,PACU_VAV_TOP,Air System Electric Energy [J] !TimeStep
End of Data Dictionary
1,RUN PERIOD 1,  39.72,-104.75,  -7.00,1726.00
2,1, 7, 1, 1, 1, 0.00,15.00,Sunday
7,15.775
9,0.0
29,0.0
32,0.0
35,0.0
38,0.0
41,0.0
44,0.0
47,0.0
50,0.0
53,0.0
56,0.0
59,0.0
62,0.0
65,0.0
68,0.0
71,0.0
968,26.37143637418267
969,26.49572435635083
1010,25.619033268630778
1011,10.363638599818352
1052,27.38117363070797
1053,9.630963171267025
1094,26.816858292234288
1095,10.132841103388966
1136,26.669392066711479
1137,9.830297596301934
1178,26.783497171017058
1179,9.429281556966079
1220,26.328725297163716
1221,10.079373047771185
1262,26.389727341679249
1263,10.00144949303062
1304,26.33021988060468
1305,10.04681204487212
1346,26.73536624934504
1347,9.601227188682556
1388,25.032501089726183
1389,10.493031107515172
1430,25.109092030347165
1431,10.227818398606353
1472,25.027640882368475
1473,10.247822802862335
1514,25.72450662699209
1515,10.034884958698651
1556,26.466608462767714
1557,10.02006007608999
1598,26.529999117705427
1599,9.973083608361354
1640,26.471891936491269
1641,10.049235321421755
1682,26.701746004124645
1683,9.564078798507083
1868,1005.6984745009573
2021,0.0
2047,0.0
2049,0.0
2051,0.0
2053,0.0
2055,0.0
2057,0.0
2059,0.0
2061,0.0
2063,0.0
2065,0.0
2067,0.0
2069,0.0
2071,0.0
2073,0.0
2614,0.0
2617,753621.6832727933
2620,0.0
2,1, 7, 1, 1, 1,15.00,30.00,Sunday
7,17.55
9,0.0
29,0.0
32,0.0
35,0.0
38,0.0
41,0.0
44,0.0
47,0.0
50,0.0
53,0.0
56,0.0
59,0.0
62,0.0
65,0.0
68,0.0
71,0.0
968,26.288928266981196
969,26.57673264700955
1010,25.5398330868778
1011,10.433925418766629
1052,25.85815459418846
1053,10.994419718266809
1094,26.81216390231589
1095,10.140007153489531
1136,26.698958939427308
1137,9.932141317571155
1178,26.953772758092059
1179,9.358950972442221
1220,26.12760512108344
1221,10.334681960798236
1262,26.436183364592059
1263,10.047764855336766
1304,26.369489354076884
1305,10.093956129527692
1346,26.792277685053436
1347,9.663991326705395
1388,25.071859705627035
1389,10.50630141177534
1430,25.149294757019069
1431,10.247242709487189
1472,25.06985457190186
1473,10.263914248153919
1514,25.744804027501986
1515,10.062390422209294
1556,25.84061725669239
1557,10.715046797405398
1598,21.176277428569937
1599,16.392429344009078
1640,22.34099868400723
1641,14.812938802139192
1682,21.626156059344284
1683,15.785542662737612
1868,8697.581157300338
2021,0.0
2047,0.0
2049,0.0
2051,0.0
2053,0.0
2055,0.0
2057,0.0
2059,0.0
2061,0.0
2063,0.0
2065,0.0
2067,0.0
2069,0.0
2071,0.0
2073,0.0
2614,0.0
2617,6851693.13230376
2620,824381.8050517282
2,1, 7, 1, 1, 1,30.00,45.00,Sunday
7,19.325000000000004
9,0.0
29,0.0
32,0.0
35,0.0
38,0.0
41,0.0
44,0.0
47,0.0
50,0.0
53,0.0
56,0.0
59,0.0
62,0.0
65,0.0
68,0.0
71,0.0
968,26.232237891729655
969,26.617370574287443
1010,25.397547521343033
1011,10.754603752899819
1052,26.61794009776699
1053,10.489220098196935
1094,26.809065860377428
1095,10.168421527755088
1136,27.046825455160126
1137,9.70666450353652
1178,26.36833084767433
1179,10.086497253601435
1220,23.274432934414248
1221,14.384729882043747
1262,26.483846274697205
1263,10.175497957331278
1304,26.38131327586101
1305,10.256760865997374
1346,26.683475268474724
1347,10.013290974928989
1388,25.12639423960334
1389,10.554677371591483
1430,25.205224163673564
1431,10.303531689555978
1472,25.12755143667057
1473,10.315243758903913
1514,25.7791992661839
1515,10.126434332581335
1556,26.27654769501393
1557,10.534439599871512
1598,24.17318516124728
1599,13.500319824551239
1640,24.635451977762274
1641,12.799046495106403
1682,24.660262921894885
1683,12.982718585712077
1868,3978.1659678651997
2021,0.0
2047,0.0
2049,0.0
2051,0.0
2053,0.0
2055,0.0
2057,0.0
2059,0.0
2061,0.0
2063,0.0
2065,0.0
2067,0.0
2069,0.0
2071,0.0
2073,0.0
2614,0.0
2617,0.0
2620,3428601.266863868
2,1, 7, 1, 1, 1,45.00,60.00,Sunday
7,21.1
9,0.0
29,0.0
32,0.0
35,0.0
38,0.0
41,0.0
44,0.0
47,0.0
50,0.0
53,0.0
56,0.0
59,0.0
62,0.0
65,0.0
68,0.0
71,0.0
968,26.18980802323627
969,26.635596744319817
1010,25.42398479689629
1011,10.831141382217585
1052,25.340478185367627
1053,12.600054608754967
1094,26.8085176955377
1095,10.22385816046971
1136,26.1538522424129
1137,10.944038015569629
1178,26.828403601330068
1179,9.781253121775447
1220,25.025986656706594
1221,13.017690025468092
1262,26.558608060975709
1263,10.37813464369378
1304,26.485862202168648
1305,10.427270646957993
1346,26.896553944656654
1347,10.127204206239404
1388,25.196412388329159
1389,10.649754564257537
1430,25.277397655185838
1431,10.408555699762877
1472,25.201245928563585
1473,10.413238345503185
1514,25.838544633438869
1515,10.232398945254646
1556,25.802727785873004
1557,11.558899810585907
1598,19.345054193222877
1599,24.067051968134427
1640,25.17747580262414
1641,12.557738248453197
1682,19.57464566797627
1683,23.76667820280619
1868,7815.687792412777
2021,0.0
2047,0.0
2049,0.0
2051,0.0
2053,0.0
2055,0.0
2057,0.0
2059,0.0
2061,0.0
2063,0.0
2065,0.0
2067,0.0
2069,0.0
2071,0.0
2073,0.0
2614,0.0
2617,6882370.908956684
2620,0.0
2,1, 7, 1, 1, 1, 0.00,60.00,Sunday
1869,5374.283348019818
2,1, 7, 1, 1, 2, 0.00,15.00,Sunday
7,20.75
9,0.0
29,0.0
32,0.0
35,0.0
38,0.0
41,0.0
44,0.0
47,0.0
50,0.0
53,0.0
56,0.0
59,0.0
62,0.0
65,0.0
68,0.0
71,0.0
968,26.159060829031089
969,26.684017996118614
1010,25.3443664994375
1011,10.971339651169231
1052,25.09546663627072
1053,14.117225861013243
1094,26.797491963823658
1095,10.283127787075849
1136,26.421848437145728
1137,10.94763535072476
1178,26.98358112688016
1179,9.692717288627437
1220,25.471143949004614
1221,12.8190559510727
1262,26.548504051482657
1263,10.570761538294379
1304,26.490662461782187
1305,10.602089413861874
1346,26.92436265408485
1347,10.295135458266206
1388,25.20672036904587
1389,10.757929878213421
1430,25.280650562908826
1431,10.52904729673412
1472,25.214123837198298
1473,10.523550141410853
1514,25.83209833682077
1515,10.352399069627835
1556,25.640563342498426
1557,12.251218551407743
1598,20.19965777967993
1599,23.37628411292662
1640,21.808798388307048
1641,18.76790203270064
1682,20.45889962008574
1683,23.01248932525713
1868,10041.982657872899
2021,0.0
2047,0.0
2049,0.0
2051,0.0
2053,0.0
2055,0.0
2057,0.0
2059,0.0
2061,0.0
2063,0.0
2065,0.0
2067,0.0
2069,0.0
2071,0.0
2073,0.0
2614,0.0
2617,8886036.287870793
2620,0.0
2,1, 7, 1, 1, 2,15.00,30.00,Sunday
7,20.4
9,0.0
29,0.0
32,0.0
35,0.0
38,0.0
41,0.0
44,0.0
47,0.0
50,0.0
53,0.0
56,0.0
59,0.0
62,0.0
65,0.0
68,0.0
71,0.0
968,26.13500425310867
969,26.721975683459804
1010,25.335544937821948
1011,11.038375583343543
1052,26.138531293625485
1053,13.23677117345797
1094,26.781208751582576
1095,10.329224093297532
1136,26.793531176551974
1137,10.704485095062502
1178,27.116627213926117
1179,9.617225649453318
1220,25.867076808500454
1221,12.601438259391485
1262,26.52373760166954
1263,10.710545459155194
1304,26.478389631332278
1305,10.728416588579103
1346,26.923837616021893
1347,10.418442914121027
1388,25.195934970943175
1389,10.845735833565123
1430,25.26528340827466
1431,10.6258397895042
1472,25.205152723635647
1473,10.613582450412663
1514,25.80349739658514
1515,10.45189878000375
1556,26.07919731944481
1557,11.994106486906987
1598,23.274122467310869
1599,19.362255575471317
1640,24.214436001919837
1641,16.026772199562246
1682,23.633966906905493
1683,18.955620088823588
1868,168.60900468312745
2021,0.0
2047,0.0
2049,0.0
2051,0.0
2053,0.0
2055,0.0
2057,0.0
2059,0.0
2061,0.0
2063,0.0
2065,0.0
2067,0.0
2069,0.0
2071,0.0
2073,0.0
2614,0.0
2617,0.0
2620,0.0
2,1, 7, 1, 1, 2,30.00,45.00,Sunday
7,20.049999999999998
9,0.0
29,0.0
32,0.0
35,0.0
38,0.0
41,0.0
44,0.0
47,0.0
50,0.0
53,0.0
56,0.0
59,0.0
62,0.0
65,0.0
68,0.0
71,0.0
968,26.11552765981037
969,26.75275294857741
1010,25.269757345352127
1011,11.36270201264794
1052,26.483153591506757
1053,12.969246573530008
1094,26.760551600867978
1095,10.361761093963267
1136,26.988871555447667
1137,10.582228937275785
1178,25.765141514411384
1179,10.747621904510437
1220,22.50429686871344
1221,15.428567998165868
1262,26.47311838667729
1263,10.80916186659387
1304,26.346819638760633
1305,10.891038513997554
1346,26.458592288020925
1347,10.869776843352153
1388,25.169834931668356
1389,10.910151238595198
1430,25.23469408877772
1431,10.697488748188548
1472,25.180144286671998
1473,10.68034119834429
1514,25.75880650370484
1515,10.5278514010762
1556,26.19569372655426
1557,11.941610524751784
1598,24.20558960675821
1599,18.18743457029752
1640,24.688388070283609
1641,15.541745736809219
1682,24.59025252111785
1683,17.77955138353548
1868,4730.510865399538
2021,0.0
2047,0.0
2049,0.0
2051,0.0
2053,0.0
2055,0.0
2057,0.0
2059,0.0
2061,0.0
2063,0.0
2065,0.0
2067,0.0
2069,0.0
2071,0.0
2073,0.0
2614,0.0
2617,0.0
2620,4105711.674644769
2,1, 7, 1, 1, 2,45.00,60.00,Sunday
7,19.7
9,0.0
29,0.0
32,0.0
35,0.0
38,0.0
41,0.0
44,0.0
47,0.0
50,0.0
53,0.0
56,0.0
59,0.0
62,0.0
65,0.0
68,0.0
71,0.0
968,26.100354812496819
969,26.776758134052274
1010,25.07498418592178
1011,11.614531812807874
1052,26.73218629061224
1053,12.761476777974302
1094,26.739550779227387
1095,10.377621899074473
1136,27.120590672633069
1137,10.500572781387945
1178,25.356605443747964
1179,11.039702114629082
1220,22.356888727068485
1221,14.796975492419762
1262,26.42935872507119
1263,10.84077176446807
1304,26.35131506520583
1305,10.889032594333124
1346,26.630386638425209
1347,10.746930469697574
1388,25.13769678429182
1389,10.94334964480438
1430,25.198790306751297
1431,10.735509435372802
1472,25.14854190221066
1473,10.715659854101313
1514,25.70951713503841
1515,10.571200167044829
1556,26.277673850285028
1557,11.86833857220474
1598,24.940382999789155
1599,17.290041663147247
1640,25.38217345937793
1641,14.849024941072356
1682,25.344531752278905
1683,16.88443346994162
1868,4873.57846104113
2021,0.0
2047,0.0
2049,0.0
2051,0.0
2053,0.0
2055,0.0
2057,0.0
2059,0.0
2061,0.0
2063,0.0
2065,0.0
2067,0.0
2069,0.0
2071,0.0
2073,0.0
2614,0.0
2617,0.0
2620,4234472.510722203
2,1, 7, 1, 1, 2, 0.00,60.00,Sunday
1869,4953.670247249173
2,1, 7, 1, 1, 3, 0.00,15.00,Sunday
7,19.375
9,0.0
29,0.0
32,0.0
35,0.0
38,0.0
41,0.0
44,0.0
47,0.0
50,0.0
53,0.0
56,0.0
59,0.0
62,0.0
65,0.0
68,0.0
71,0.0
968,26.084008502375089
969,26.794505781900488
1010,25.11267748805104
1011,11.593752426217418
1052,25.305586678443445
1053,14.070177208482902
1094,26.714598187367529
1095,10.399365253082764
1136,26.404088260557644
1137,11.013860920963556
1178,26.17518169488857
1179,10.512903264360303
1220,24.3029244912005
1221,13.197143310698248
1262,26.365962020593459
1263,10.904693628592064
1304,26.316667446066444
1305,10.933504130407912
1346,26.658411877809827
1347,10.751712956086167
1388,25.097399870198623
1389,10.992642058464805
1430,25.154329771506494
1431,10.790753707433716
1472,25.10830413576846
1473,10.767717749485432
1514,25.649614516519443
1515,10.632388620628053
1556,25.376432338617538
1557,12.516762201455487
1598,20.310492274033547
1599,19.2300714278052
1640,21.595566935811598
1641,17.18868708207247
1682,20.510528463119785
1683,18.980993957682263
1868,9830.819184122
2021,0.0
2047,0.0
2049,0.0
2051,0.0
2053,0.0
2055,0.0
2057,0.0
2059,0.0
2061,0.0
2063,0.0
2065,0.0
2067,0.0
2069,0.0
2071,0.0
2073,0.0
2614,0.0
2617,8695989.161494989
2620,0.0
2,1, 7, 1, 1, 3,15.00,30.00,Sunday
7,19.049999999999998
9,0.0
29,0.0
32,0.0
35,0.0
38,0.0
41,0.0
44,0.0
47,0.0
50,0.0
53,0.0
56,0.0
59,0.0
62,0.0
65,0.0
68,0.0
71,0.0
968,26.07051109284796
969,26.807750287816835
1010,25.0594027560455
1011,11.644846322511146
1052,25.024048543515887
1053,14.0440196010981
1094,26.69247538135793
1095,10.42136765690242
1136,26.29916235060748
1137,11.147152833098172
1178,26.452904747631356
1179,10.337309735306944
1220,24.801442239297278
1221,12.807279673847594
1262,26.301931526288788
1263,10.976764165903152
1304,26.27076149586449
1305,10.99238804943815
1346,26.631701954817559
1347,10.797942913786656
1388,25.05785260517445
1389,11.044537102098886
1430,25.111075302309624
1431,10.848131145480679
1472,25.06860738783699
1473,10.82211767790984
1514,25.59266529226463
1515,10.694942782510433
1556,25.444642162344566
1557,12.499036926321164
1598,20.41792532488515
1599,18.27068532632304
1640,21.595176426598778
1641,16.79443795802698
1682,20.583505399994736
1683,18.059931741802733
1868,9435.253873885296
2021,0.0
2047,0.0
2049,0.0
2051,0.0
2053,0.0
2055,0.0
2057,0.0
2059,0.0
2061,0.0
2063,0.0
2065,0.0
2067,0.0
2069,0.0
2071,0.0
2073,0.0
2614,0.0
2617,8339980.382281952
2620,0.0
2,1, 7, 1, 1, 3,30.00,45.00,Sunday
7,18.724999999999999
9,0.0
29,0.0
32,0.0
35,0.0
38,0.0
41,0.0
44,0.0
47,0.0
50,0.0
53,0.0
56,0.0
59,0.0
62,0.0
65,0.0
68,0.0
71,0.0
968,26.05625241261072
969,26.822207930593135
1010,25.047758235590107
1011,11.672118473478009
1052,26.01277173139006
1053,13.250732268679359
1094,26.667083521262698
1095,10.448938823558134
1136,26.70314706730577
1137,10.878617923567968
1178,26.718365423975933
1179,10.173519670611228
1220,25.270250577096726
1221,12.47471432838975
1262,26.239049391473765
1263,11.059901483670137
1304,26.219747424415837
1305,11.065774106969437
1346,26.58818094396781
1347,10.866270460717552
1388,25.01325324482388
1389,11.107266175906096
1430,25.06248613950896
1431,10.916944257338829
1472,25.023598702789564
1473,10.88764755925969
1514,25.529522129541684
1515,10.769169315976772
1556,25.82971387554976
1557,12.228962073992787
1598,23.188824040371288
1599,15.485391946921404
1640,23.866891855013554
1641,14.665475242896342
1682,23.4719274045121
1683,15.20520302659163
1868,168.60900468312753
2021,0.0
2047,0.0
2049,0.0
2051,0.0
2053,0.0
2055,0.0
2057,0.0
2059,0.0
2061,0.0
2063,0.0
2065,0.0
2067,0.0
2069,0.0
2071,0.0
2073,0.0
2614,0.0
2617,0.0
2620,0.0
2,1, 7, 1, 1, 3,45.00,60.00,Sunday
7,18.4
9,0.0
29,0.0
32,0.0
35,0.0
38,0.0
41,0.0
44,0.0
47,0.0
50,0.0
53,0.0
56,0.0
59,0.0
62,0.0
65,0.0
68,0.0
71,0.0
968,26.042935708883979
969,26.835178581292455
1010,25.038836374656698
1011,11.700580815263854
1052,26.327037118926027
1053,12.998775518827478
1094,26.641501239828825
1095,10.47851287932808
1136,26.869462001315026
1137,10.76925594852121
1178,26.844987923072748
1179,10.094737262251558
1220,25.460332277339423
1221,12.363082911598628
1262,26.182934050539524
1263,11.145304306655318
1304,26.170188708536374
1305,11.14453164338917
1346,26.53734293862413
1347,10.945778694451468
1388,24.969078910666185
1389,11.173024097321195
1430,25.014477146810628
1431,10.98867997509949
1472,24.97884420029163
1473,10.956126385074003
1514,25.468083783785049
1515,10.845788918308028
1556,25.940637300651955
1557,12.16843054995918
1598,23.94277900466266
1599,14.769931070458157
1640,24.437413744267265
1641,14.157066551726516
1682,24.259455053730848
1683,14.473708167048672
1868,168.60900468312748
2021,0.0
2047,0.0
2049,0.0
2051,0.0
2053,0.0
2055,0.0
2057,0.0
2059,0.0
2061,0.0
2063,0.0
2065,0.0
2067,0.0
2069,0.0
2071,0.0
2073,0.0
2614,0.0
2617,0.0
2620,0.0
2,1, 7, 1, 1, 3, 0.00,60.00,Sunday
1869,4900.822766843387
2,1, 7, 1, 1, 4, 0.00,15.00,Sunday
7,18.049999999999998
9,0.0
29,0.0
32,0.0
35,0.0
38,0.0
41,0.0
44,0.0
47,0.0
50,0.0
53,0.0
56,0.0
59,0.0
62,0.0
65,0.0
68,0.0
71,0.0
968,26.03052749511407
969,26.854880644012384
1010,25.03246023327323
1011,11.724053952932167
1052,26.56880829107755
1053,12.81132913450931
1094,26.616637895948398
1095,10.506646116415706
1136,27.011407163326788
1137,10.679710605172442
1178,26.92025596424053
1179,10.050122511614405
1220,25.558467899152509
1221,12.311513424124984
1262,26.131230966086308
1263,11.216439709725009
1304,26.12255766708974
1305,11.211370424803836
1346,26.48524670983587
1347,11.015028727191372
1388,24.925341375115374
1389,11.232764219714327
1430,24.967030693291574
1431,11.0536326880502
1472,24.934583277508297
1473,11.018182311492849
1514,25.408550834057477
1515,10.915308466418761
1556,26.015524295416144
1557,12.128355889490028
1598,24.632972748439003
1599,14.165432677736142
1640,25.005426897936105
1641,13.683224427988293
1682,24.97085522073138
1683,13.865250323410839
1868,168.6090046831275
2021,0.0
2047,0.0
2049,0.0
2051,0.0
2053,0.0
2055,0.0
2057,0.0
2059,0.0
2061,0.0
2063,0.0
2065,0.0
2067,0.0
2069,0.0
2071,0.0
2073,0.0
2614,0.0
2617,0.0
2620,0.0
2,1, 7, 1, 1, 4,15.00,30.00,Sunday
7,17.7
9,0.0
29,0.0
32,0.0
35,0.0
38,0.0
41,0.0
44,0.0
47,0.0
50,0.0
53,0.0
56,0.0
59,0.0
62,0.0
65,0.0
68,0.0
71,0.0
968,26.018672173159865
969,26.873719215544875
1010,25.023422231027334
1011,11.74414919942657
1052,26.69107717039877
1053,12.713846385157229
1094,26.592790902028143
1095,10.530903870209852
1136,27.101280957176685
1137,10.623433930721463
1178,26.95917329650824
1179,10.027147338964135
1220,25.59549987825349
1221,12.2953308720549
1262,26.08247451923515
1263,11.27428512037331
1304,26.07665247953711
1305,11.266282665639509
1346,26.433088867935397
1347,11.073292777173709
1388,24.882077386326637
1389,11.285086014540669
1430,24.920149740940205
1431,11.110607704271989
1472,24.89033225114063
1473,11.072876257827062
1514,25.350094460849577
1515,10.976997714186958
1556,26.040057830223057
1557,12.117186934653628
1598,24.90831762372037
1599,13.922695300740945
1640,25.224556013277068
1641,13.498133057439649
1682,25.249027378024857
1683,13.626087767229894
1868,168.6090046831275
2021,0.0
2047,0.0
2049,0.0
2051,0.0
2053,0.0
2055,0.0
2057,0.0
2059,0.0
2061,0.0
2063,0.0
2065,0.0
2067,0.0
2069,0.0
2071,0.0
2073,0.0
2614,0.0
2617,0.0
2620,0.0
2,1, 7, 1, 1, 4,30.00,45.00,Sunday
7,17.35
9,0.0
29,0.0
32,0.0
35,0.0
38,0.0
41,0.0
44,0.0
47,0.0
50,0.0
53,0.0
56,0.0
59,0.0
62,0.0
65,0.0
68,0.0
71,0.0
968,26.000470614916158
969,26.902669653535474
1010,25.00684663690919
1011,11.77793434353071
1052,26.82546538239891
1053,12.601839702500579
1094,26.55662104824745
1095,10.568924391522455
1136,27.233548039811585
1137,10.54127972110633
1178,27.005216066559258
1179,10.00005970518865
1220,25.62563278062199
1221,12.286849847354415
1262,26.016581977514649
1263,11.35769496459993
1304,26.014105778051186
1305,11.345943054806164
1346,26.361922026800877
1347,11.15736755468214
1388,24.820602898620807
1389,11.365246732647226
1430,24.853728511411476
1431,11.19817789712604
1472,24.827162689531116
1473,11.157496207910136
1514,25.26794275448253
1515,11.070118097650255
1556,26.057503920210445
1557,12.111442331760735
1598,25.18546552199466
1599,13.671393881787117
1640,25.441909851288416
1641,13.308123573575865
1682,25.526838082804315
1683,13.38063499978038
1868,168.6090046831275
2021,0.0
2047,0.0
2049,0.0
2051,0.0
2053,0.0
2055,0.0
2057,0.0
2059,0.0
2061,0.0
2063,0.0
2065,0.0
2067,0.0
2069,0.0
2071,0.0
2073,0.0
2614,0.0
2617,0.0
2620,0.0
2,1, 7, 1, 1, 4,45.00,60.00,Sunday
7,17.0
9,0.0
29,0.0
32,0.0
35,0.0
38,0.0
41,0.0
44,0.0
47,0.0
50,0.0
53,0.0
56,0.0
59,0.0
62,0.0
65,0.0
68,0.0
71,0.0
968,25.987949439605616
969,26.922609640716638
1010,24.988746856673925
1011,11.80174556575723
1052,25.303685139001666
1053,13.366933811448295
1094,26.531783838084807
1095,10.592503368124785
1136,26.570343694798379
1137,11.018051433181155
1178,27.022735658965286
1179,9.989780860784569
1220,25.625590241464484
1221,12.288558815823107
1262,25.965059018263007
1263,11.410410232481217
1304,25.96447756230034
1305,11.396773773954385
1346,26.304277318171548
1347,11.212361791044052
1388,24.77325238272744
1389,11.418401483658489
1430,24.802689217434599
1431,11.256225449905969
1472,24.778594576756768
1473,11.213536119600402
1514,25.205192523479917
1515,11.13289596989152
1556,25.16862961350699
1557,12.755159931542043
1598,20.58304156700122
1599,17.28084880414672
1640,21.76913790322731
1641,16.10617069344498
1682,20.684654452716495
1683,17.156097770955215
1868,7917.716342668657
2021,0.0
2047,0.0
2049,0.0
2051,0.0
2053,0.0
2055,0.0
2057,0.0
2059,0.0
2061,0.0
2063,0.0
2065,0.0
2067,0.0
2069,0.0
2071,0.0
2073,0.0
2614,0.0
2617,6974196.604186991
2620,0.0
2,1, 7, 1, 1, 4, 0.00,60.00,Sunday
1869,2105.8858391795099
2,1, 7, 1, 1, 5, 0.00,15.00,Sunday
7,17.0
9,0.0
29,0.0
32,0.0
35,0.0
38,0.0
41,0.0
44,0.0
47,0.0
50,0.0
53,0.0
56,0.0
59,0.0
62,0.0
65,0.0
68,0.0
71,0.0
968,25.976410963234913
969,26.949190418777947
1010,24.966138969001049
1011,11.82864479719466
1052,24.981089860030456
1053,13.341426583404444
1094,26.508346217733313
1095,10.61618120307954
1136,26.507454961705986
1137,11.072457540911668
1178,27.02596979998937
1179,9.990920322340399
1220,25.61281414465148
1221,12.295774668070216
1262,25.91891374952626
1263,11.45474758136576
1304,25.92064707978787
1305,11.439355371877927
1346,26.25173222132378
1347,11.259385945847504
1388,24.73519638302728
1389,11.463997139444727
1430,24.761074799176215
1431,11.306422541375959
1472,24.739781737260107
1473,11.261708041168778
1514,25.153741997029554
1515,11.186848109739769
1556,25.229140724992495
1557,12.675843348309515
1598,20.505060887230927
1599,16.797760698830158
1640,21.593142738308126
1641,15.831229143619776
1682,20.738053421102767
1683,16.556285854630937
1868,7018.230420374602
2021,0.0
2047,0.0
2049,0.0
2051,0.0
2053,0.0
2055,0.0
2057,0.0
2059,0.0
2061,0.0
2063,0.0
2065,0.0
2067,0.0
2069,0.0
2071,0.0
2073,0.0
2614,0.0
2617,6164659.274122326
2620,0.0
2,1, 7, 1, 1, 5,15.00,30.00,Sunday
7,17.0
9,0.0
29,0.0
32,0.0
35,0.0
38,0.0
41,0.0
44,0.0
47,0.0
50,0.0
53,0.0
56,0.0
59,0.0
62,0.0
65,0.0
68,0.0
71,0.0
968,25.963162732174774
969,26.97852725665994
1010,24.937668421459628
1011,11.857295630525514
1052,25.893971245715997
1053,12.646715944108154
1094,26.479704330536543
1095,10.641858446638107
1136,26.79243022207697
1137,10.891292001811618
1178,27.0238413757928
1179,9.995206818478737
1220,25.592354577862375
1221,12.300486242798942
1262,25.866300940465295
1263,11.49712510038763
1304,25.870544382425167
1305,11.48020173452529
1346,26.192091350705057
1347,11.304848081700732
1388,24.693098120100435
1389,11.510374120482722
1430,24.71512555111908
1431,11.357743231424204
1472,24.696969744009367
1473,11.310945308958186
1514,25.09677105797361
1515,11.242516889363781
1556,25.565270880051448
1557,12.41692407485824
1598,23.102937502408307
1599,14.370843805447852
1640,23.66409819139833
1641,13.984118577276904
1682,23.383907958462829
1683,14.127454392937825
1868,168.60900468312753
2021,0.0
2047,0.0
2049,0.0
2051,0.0
2053,0.0
2055,0.0
2057,0.0
2059,0.0
2061,0.0
2063,0.0
2065,0.0
2067,0.0
2069,0.0
2071,0.0
2073,0.0
2614,0.0
2617,0.0
2620,0.0
2,1, 7, 1, 1, 5,30.00,45.00,Sunday
7,17.0
9,187.0
29,0.0
32,0.0
35,0.0
38,0.0
41,0.0
44,0.0
47,0.0
50,0.0
53,0.0
56,0.0
59,0.0
62,0.0
65,0.0
68,0.0
71,0.0
968,25.953407292291435
969,27.002311253966036
1010,24.916734922215466
1011,11.876795707937298
1052,26.19385335746668
1053,12.410212454353467
1094,26.454228515988814
1095,10.663256814260908
1136,26.91578410266296
1137,10.815679436695979
1178,27.018202031324873
1179,10.001555766934905
1220,25.807352219466809
1221,12.126473130997456
1262,26.25526465504268
1263,11.234229410079806
1304,25.838477469295986
1305,11.500531500220284
1346,26.151300511924967
1347,11.329216193107458
1388,24.905564029406226
1389,11.378051312298953
1430,25.116527363616549
1431,11.10461075802394
1472,24.674674930711526
1473,11.341726129385649
1514,25.06205162351927
1515,11.278596729136002
1556,25.905361643455576
1557,12.152315816095886
1598,24.132132220560128
1599,13.470249652257249
1640,24.236808701960006
1641,13.476740801132058
1682,24.037611059440125
1683,13.539902133403082
1868,168.60900468312776
2021,0.0
2047,0.0
2049,0.0
2051,0.0
2053,0.0
2055,0.0
2057,0.0
2059,0.0
2061,0.0
2063,0.0
2065,0.0
2067,0.0
2069,0.0
2071,0.0
2073,0.0
2614,0.0
2617,0.0
2620,0.0
2,1, 7, 1, 1, 5,45.00,60.00,Sunday
7,17.0
9,302.0
29,0.0
32,0.0
35,0.0
38,0.0
41,0.0
44,0.0
47,0.0
50,0.0
53,0.0
56,0.0
59,0.0
62,0.0
65,0.0
68,0.0
71,0.0
968,25.951769313626465
969,27.013133648950129
1010,24.913179507396398
1011,11.879996003860793
1052,26.43273810928424
1053,12.222370100218433
1094,26.434110244541985
1095,10.678874334702277
1136,27.032116110707688
1137,10.745277535304068
1178,27.01696428060979
1179,10.00532166405769
1220,26.046562176867206
1221,11.92962713915551
1262,26.725447405867464
1263,10.91711723530859
1304,25.82058558280174
1305,11.502763904919089
1346,26.12555891504219
1347,11.3348110106503
1388,25.148816432368969
1389,11.22203957390628
1430,25.633922147087028
1431,10.77858180150779
1472,24.668227881903634
1473,11.356884857065353
1514,25.04401816877724
1515,11.298475076719713
1556,26.236187037716517
1557,11.893458912689806
1598,25.366040396986056
1599,12.488188186456267
1640,24.78181519872814
1641,13.016755288332633
1682,24.743334943103784
1683,12.95260807424454
1868,168.6090046831275
2021,0.0
2047,0.0
2049,0.0
2051,0.0
2053,0.0
2055,0.0
2057,0.0
2059,0.0
2061,0.0
2063,0.0
2065,0.0
2067,0.0
2069,0.0
2071,0.0
2073,0.0
2614,0.0
2617,0.0
2620,0.0
2,1, 7, 1, 1, 5, 0.00,60.00,Sunday
1869,1881.0143586059963