Program Version,EnergyPlus, Version 9.3.0-baff08990c, YMD=2021.12.10 12:55
1,5,Environment Title[],Latitude[deg],Longitude[deg],Time Zone[],Elevation[m]
2,8,Day of Simulation[],Month[],Day of Month[],DST Indicator[1=yes 0=no],Hour[],StartMinute[],EndMinute[],DayType
3,5,Cumulative Day of Simulation[],Month[],Day of Month[],DST Indicator[1=yes 0=no],DayType  ! When Daily Report Variables Requested
4,2,Cumulative Days of Simulation[],Month[]  ! When Monthly Report Variables Requested
5,1,Cumulative Days of Simulation[] ! When Run Period Report Variables Requested
6,1,Calendar Year of Simulation[] ! When Annual Report Variables Requested
7,1,Environment,Site Outdoor Air Drybulb Temperature [C] !TimeStep
9,1,Environment,Site Direct Solar Radiation Rate per Area [W/m2] !TimeStep
29,1,CORE_BOTTOM,Zone People Occupant Count [] !TimeStep
32,1,CORE_MID,Zone People Occupant Count [] !TimeStep
35,1,CORE_TOP,Zone People Occupant Count [] !TimeStep
38,1,PERIMETER_TOP_ZN_3,Zone People Occupant Count [] !TimeStep
41,1,PERIMETER_TOP_ZN_2,Zone People Occupant Count [] !TimeStep
44,1,PERIMETER_TOP_ZN_1,Zone People Occupant Count [] !TimeStep
47,1,PERIMETER_TOP_ZN_4,Zone People Occupant Count [] !TimeStep
50,1,PERIMETER_BOT_ZN_3,Zone People Occupant Count [] !TimeStep
53,1,PERIMETER_BOT_ZN_2,Zone People Occupant Count [] !TimeStep
56,1,PERIMETER_BOT_ZN_1,Zone People Occupant Count [] !TimeStep
59,1,PERIMETER_BOT_ZN_4,Zone People Occupant Count [] !TimeStep
62,1,PERIMETER_MID_ZN_3,Zone People Occupant Count [] !TimeStep
65,1,PERIMETER_MID_ZN_2,Zone People Occupant Count [] !TimeStep
68,1,PERIMETER_MID_ZN_1,Zone People Occupant Count [] !TimeStep
71,1,PERIMETER_MID_ZN_4,Zone People Occupant Count [] !TimeStep
968,1,CORE_BOTTOM,Zone Air Temperature [C] !TimeStep
969,1,CORE_BOTTOM,Zone Air Relative Humidity [%] !TimeStep
1010,1,TOPFLOOR_PLENUM,Zone Air Temperature [C] !TimeStep
1011,1,TOPFLOOR_PLENUM,Zone Air Relative Humidity [%] !TimeStep
1052,1,MIDFLOOR_PLENUM,Zone Air Temperature [C] !TimeStep
1053,1,MIDFLOOR_PLENUM,Zone Air Relative Humidity [%] !TimeStep
1094,1,FIRSTFLOOR_PLENUM,Zone Air Temperature [C] !TimeStep
1095,1,FIRSTFLOOR_PLENUM,Zone Air Relative Humidity [%] !TimeStep
1136,1,CORE_MID,Zone Air Temperature [C] !TimeStep
1137,1,CORE_MID,Zone Air Relative Humidity [%] !TimeStep
1178,1,CORE_TOP,Zone Air Temperature [C] !TimeStep
1179,1,CORE_TOP,Zone Air Relative Humidity [%] !TimeStep
1220,1,PERIMETER_TOP_ZN_3,Zone Air Temperature [C] !TimeStep
1221,1,PERIMETER_TOP_ZN_3,Zone Air Relative Humidity [%] !TimeStep
1262,1,PERIMETER_TOP_ZN_2,Zone Air Temperature [C] !TimeStep
1263,1,PERIMETER_TOP_ZN_2,Zone Air Relative Humidity [%] !TimeStep
1304,1,PERIMETER_TOP_ZN_1,Zone Air Temperature [C] !TimeStep
1305,1,PERIMETER_TOP_ZN_1,Zone Air Relative Humidity [%] !TimeStep
1346,1,PERIMETER_TOP_ZN_4,Zone Air Temperature [C] !TimeStep
1347,1,PERIMETER_TOP_ZN_4,Zone Air Relative Humidity [%] !TimeStep
1388,1,PERIMETER_BOT_ZN_3,Zone Air Temperature [C] !TimeStep
1389,1,PERIMETER_BOT_ZN_3,Zone Air Relative Humidity [%] !TimeStep
1430,1,PERIMETER_BOT_ZN_2,Zone Air Temperature [C] !TimeStep
1431,1,PERIMETER_BOT_ZN_2,Zone Air Relative Humidity [%] !TimeStep
1472,1,PERIMETER_BOT_ZN_1,Zone Air Temperature [C] !TimeStep
1473,1,PERIMETER_BOT_ZN_1,Zone Air Relative Humidity [%] !TimeStep
1514,1,PERIMETER_BOT_ZN_4,Zone Air Temperature [C] !TimeStep
1515,1,PERIMETER_BOT_ZN_4,Zone Air Relative Humidity [%] !TimeStep
1556,1,PERIMETER_MID_ZN_3,Zone Air Temperature [C] !TimeStep
1557,1,PERIMETER_MID_ZN_3,Zone Air Relative Humidity [%] !TimeStep
1598,1,PERIMETER_MID_ZN_2,Zone Air Temperature [C] !TimeStep
1599,1,PERIMETER_MID_ZN_2,Zone Air Relative Humidity [%] !TimeStep
1640,1,PERIMETER_MID_ZN_1,Zone Air Temperature [C] !TimeStep
1641,1,PERIMETER_MID_ZN_1,Zone Air Relative Humidity [%] !TimeStep
1682,1,PERIMETER_MID_ZN_4,Zone Air Temperature [C] !TimeStep
1683,1,PERIMETER_MID_ZN_4,Zone Air Relative Humidity [%] !TimeStep
End of Data Dictionary
1,RUN PERIOD 1,  39.72,-104.75,  -7.00,1726.00
2,1, 7, 1, 1, 1, 0.00,15.00,Sunday
7,15.775
9,0.0
29,0.0
32,0.0
35,0.0
38,0.0
41,0.0
44,0.0
47,0.0
50,0.0
53,0.0
56,0.0
59,0.0
62,0.0
65,0.0
68,0.0
71,0.0
968,25.039251624724924
969,12.901434639730777
1010,24.09611658035368
1011,12.18949246114364
1052,25.55680311710223
1053,11.827830807435069
1094,24.929020158404304
1095,12.749537487369523
1136,25.73345760671603
1137,12.094965464292878
1178,25.83876854944126
1179,11.252535681857557
1220,24.888027984196655
1221,11.449666423781827
1262,24.814912309544455
1263,11.543902059059157
1304,24.768273222271977
1305,11.55979063349471
1346,25.627025021350005
1347,11.014601241715149
1388,23.879202982773035
1389,13.035551079236108
1430,23.834584813577924
1431,12.970515859137214
1472,23.799507419257475
1473,13.07142394904251
1514,24.71762271633007
1515,12.264379489164327
1556,24.7978651519572
1557,11.860447719360538
1598,24.723667062712804
1599,11.867642182647389
1640,24.695908810802643
1641,11.928893943172448
1682,25.598284969985249
1683,11.273720700535425
2,1, 7, 1, 1, 1,15.00,30.00,Sunday
7,17.55
9,0.0
29,0.0
32,0.0
35,0.0
38,0.0
41,0.0
44,0.0
47,0.0
50,0.0
53,0.0
56,0.0
59,0.0
62,0.0
65,0.0
68,0.0
71,0.0
968,24.910838321584387
969,12.977030619192649
1010,24.038495889018838
1011,12.243995728374282
1052,25.558872994082785
1053,11.818599186235593
1094,24.92629191898286
1095,12.731808696545097
1136,25.734884208715888
1137,12.072020665407044
1178,25.810183592631039
1179,11.25117498684552
1220,24.93095898913253
1221,11.481626180483615
1262,24.86847371087859
1263,11.570175878879747
1304,24.821139004492094
1305,11.583432751520198
1346,25.646152513020359
1347,11.061684083291447
1388,23.933146570655436
1389,12.992124244473605
1430,23.89329463111304
1431,12.92784306131354
1472,23.85824976795593
1473,13.024922352790395
1514,24.74351646269832
1515,12.249606667682004
1556,24.857117158145344
1557,11.85040328206227
1598,24.78972111199412
1599,11.857838944305489
1640,24.76133587441366
1641,11.914544250804458
1682,25.635364394113894
1683,11.283804745487896
2,1, 7, 1, 1, 1,30.00,45.00,Sunday
7,19.325000000000004
9,0.0
29,0.0
32,0.0
35,0.0
38,0.0
41,0.0
44,0.0
47,0.0
50,0.0
53,0.0
56,0.0
59,0.0
62,0.0
65,0.0
68,0.0
71,0.0
968,24.79621561717339
969,13.042380592114594
1010,24.007679959700224
1011,12.35281538687718
1052,25.57358652846104
1053,11.85905515547659
1094,24.93714053486659
1095,12.750673440232236
1136,25.736598429549859
1137,12.04887326564281
1178,25.78370813916547
1179,11.248375852107789
1220,25.00408893028536
1221,11.645260265903652
1262,24.953117559004299
1263,11.735441238259416
1304,24.906992289953487
1305,11.737481691264956
1346,25.695014361822524
1347,11.243264386325003
1388,24.023782095767105
1389,13.010639056090274
1430,23.990705767814874
1431,12.949924494694667
1472,23.956476034338477
1473,13.038486242104512
1514,24.805651030161227
1515,12.298683298692288
1556,24.948418138007207
1557,11.946454430340829
1598,24.88907476409858
1599,11.960164001479623
1640,24.859564561214599
1641,12.00628464236791
1682,25.705032341390877
1683,11.40164308009412
2,1, 7, 1, 1, 1,45.00,60.00,Sunday
7,21.1
9,0.0
29,0.0
32,0.0
35,0.0
38,0.0
41,0.0
44,0.0
47,0.0
50,0.0
53,0.0
56,0.0
59,0.0
62,0.0
65,0.0
68,0.0
71,0.0
968,24.749857728259817
969,13.05474345537378
1010,24.004244302691764
1011,12.532307078269167
1052,25.594257855798494
1053,11.96739262808827
1094,24.95589945463148
1095,12.821601560648114
1136,25.739481791494144
1137,12.024897654409445
1178,25.76183059236853
1179,11.242479006161507
1220,25.088727244466967
1221,11.981169029266157
1262,25.04646230484134
1263,12.083744431570079
1304,25.00084126253041
1305,12.066951583890653
1346,25.764856375886976
1347,11.593065700292492
1388,24.12460661820958
1389,13.130605506686207
1430,24.098775145556926
1431,13.077976181338866
1472,24.065727753610536
1473,13.153184409428933
1514,24.889479573084249
1515,12.441157412529132
1556,25.0525899456009
1557,12.186520350575375
1598,24.999512135615967
1599,12.215516737238165
1640,24.96900946625063
1641,12.243835955077455
1682,25.797049835151428
1683,11.658523026501192
2,1, 7, 1, 1, 2, 0.00,15.00,Sunday
7,20.75
9,0.0
29,0.0
32,0.0
35,0.0
38,0.0
41,0.0
44,0.0
47,0.0
50,0.0
53,0.0
56,0.0
59,0.0
62,0.0
65,0.0
68,0.0
71,0.0
968,24.746425461304264
969,13.057420027459854
1010,24.008788757501358
1011,12.73431071558666
1052,25.602233412160279
1053,12.111585803560312
1094,24.964173512446558
1095,12.928631663443789
1136,25.743873504879394
1137,12.021767558603349
1178,25.745767394794237
1179,11.253188704085467
1220,25.10791554732315
1221,12.382365746753992
1262,25.062862332422129
1263,12.504848669956037
1304,25.025473709500756
1305,12.464710318864175
1346,25.771356781286266
1347,12.003763116305539
1388,24.163362299769813
1389,13.328071794096266
1430,24.134615016984104
1431,13.290979268919385
1472,24.11099895469419
1473,13.346904346935999
1514,24.911579145241978
1515,12.656635236030829
1556,25.092677532241166
1557,12.4958006331874
1598,25.035691011740636
1599,12.546728355074729
1640,25.013139868728915
1641,12.551708079208032
1682,25.824900457865505
1683,11.98091744131972
2,1, 7, 1, 1, 2,15.00,30.00,Sunday
7,20.4
9,0.0
29,0.0
32,0.0
35,0.0
38,0.0
41,0.0
44,0.0
47,0.0
50,0.0
53,0.0
56,0.0
59,0.0
62,0.0
65,0.0
68,0.0
71,0.0
968,24.752143142558944
969,13.05296115247514
1010,24.01394740846619
1011,12.887485512076836
1052,25.59605381436804
1053,12.228574660285604
1094,24.959071945932917
1095,13.016748417692109
1136,25.749287567290179
1137,12.01791007152381
1178,25.734875063805377
1179,11.260456914963158
1220,25.076395180382347
1221,12.707650834276102
1262,25.026768359069867
1263,12.844776800111829
1304,24.997251697832387
1305,12.78780473050491
1346,25.72457262693811
1347,12.337199635671914
1388,24.145399364438807
1389,13.51120726662284
1430,24.110931449027058
1431,13.488634790084833
1472,24.096979574248765
1473,13.528112168971527
1514,24.87288633435294
1515,12.858159220040966
1556,25.076099683139434
1557,12.755613335593937
1598,25.014003371154183
1599,12.82373857090104
1640,24.99993049182405
1641,12.81029138730988
1682,25.790842740912625
1683,12.254327250120625
2,1, 7, 1, 1, 2,30.00,45.00,Sunday
7,20.049999999999998
9,0.0
29,0.0
32,0.0
35,0.0
38,0.0
41,0.0
44,0.0
47,0.0
50,0.0
53,0.0
56,0.0
59,0.0
62,0.0
65,0.0
68,0.0
71,0.0
968,24.753936108964955
969,13.05156345982826
1010,24.017722318064924
1011,12.977421196154565
1052,25.583194549212409
1053,12.300364618798904
1094,24.947036318727937
1095,13.070721606916545
1136,25.75482812101344
1137,12.01396365754459
1178,25.727266956775538
1179,11.265537176515747
1220,25.033159641020629
1221,12.899689262648387
1262,24.981861858409716
1263,13.041113549213085
1304,24.956440907614128
1305,12.977746608242774
1346,25.664416908660159
1347,12.536242603930856
1388,24.106623919941805
1389,13.633164308298288
1430,24.069163827071315
1431,13.61893949292502
1472,24.06028946063131
1473,13.64937424919297
1514,24.8120957228337
1515,12.998359190294718
1556,25.04103058051291
1557,12.913106585139852
1598,24.977378429881033
1599,12.988789337306955
1640,24.967672398510083
1641,12.96646520473404
1682,25.734943899349397
1683,12.425852116991413
2,1, 7, 1, 1, 2,45.00,60.00,Sunday
7,19.7
9,0.0
29,0.0
32,0.0
35,0.0
38,0.0
41,0.0
44,0.0
47,0.0
50,0.0
53,0.0
56,0.0
59,0.0
62,0.0
65,0.0
68,0.0
71,0.0
968,24.75285546637019
969,13.052405772478802
1010,24.018091082213407
1011,13.008379149486507
1052,25.56960464396914
1053,12.324461549857846
1094,24.93392479642761
1095,13.087248930334889
1136,25.75976579514503
1137,12.010447758479913
1178,25.720926674237913
1179,11.269772490546627
1220,24.993459108652183
1221,12.956548696759784
1262,24.94203831280871
1263,13.093729757494954
1304,24.918992959946754
1305,13.032097273350932
1346,25.607460796324739
1347,12.598661844274892
1388,24.06839956361168
1389,13.680018557304589
1430,24.03030772186976
1431,13.668488465312647
1472,24.02336507221029
1473,13.695931425208002
1514,24.752007387351254
1515,13.063036084764592
1556,25.007680103835875
1557,12.959930230743066
1598,24.944482634049789
1599,13.0352465808585
1640,24.936707852310545
1641,13.011799495507982
1682,25.680809638558175
1683,12.485451747746126
2,1, 7, 1, 1, 3, 0.00,15.00,Sunday
7,19.375
9,0.0
29,0.0
32,0.0
35,0.0
38,0.0
41,0.0
44,0.0
47,0.0
50,0.0
53,0.0
56,0.0
59,0.0
62,0.0
65,0.0
68,0.0
71,0.0
968,24.752037069235589
969,13.049078600996133
1010,24.013570439410214
1011,13.018332611526349
1052,25.557209448611279
1053,12.327839893221603
1094,24.92199796029222
1095,13.086176826442382
1136,25.763785800940704
1137,12.00393909525573
1178,25.714456958342575
1179,11.270671604275865
1220,24.956016721842546
1221,12.964494505965558
1262,24.904217118657856
1263,13.09553384711293
1304,24.88371854401736
1305,13.037447530469632
1346,25.552911505302015
1347,12.611967311568037
1388,24.034056661177247
1389,13.694827747782542
1430,23.99566975608836
1431,13.684456805673062
1472,23.9900265774148
1473,13.710579292966067
1514,24.69553954834017
1515,13.096060398669977
1556,24.97769315862326
1557,12.96439311313627
1598,24.91468933418701
1599,13.037524287599459
1640,24.908792815929116
1641,13.014828581774774
1682,25.631166106990258
1683,12.50176208240004
2,1, 7, 1, 1, 3,15.00,30.00,Sunday
7,19.049999999999998
9,0.0
29,0.0
32,0.0
35,0.0
38,0.0
41,0.0
44,0.0
47,0.0
50,0.0
53,0.0
56,0.0
59,0.0
62,0.0
65,0.0
68,0.0
71,0.0
968,24.752295209267357
969,13.044912898594023
1010,24.00365239164276
1011,13.036490740571195
1052,25.54544154344084
1053,12.334325673695748
1094,24.910982045811715
1095,13.087395756242687
1136,25.766904639053139
1137,11.998073779513339
1178,25.707109387724043
1179,11.272157005919026
1220,24.916919435322986
1221,12.98427226895498
1262,24.864115862654747
1263,13.110707653104618
1304,24.846569468687027
1305,13.054914150342603
1346,25.49708007809654
1347,12.637496943928787
1388,23.999833236983429
1389,13.715386823376339
1430,23.960541171860706
1431,13.706910789134897
1472,23.956761522666548
1473,13.731000655808753
1514,24.639799420971064
1515,13.134404072870334
1556,24.94693810046366
1557,12.97813136813836
1598,24.883311956740309
1599,13.050322697753716
1640,24.879867422423695
1641,13.027347043450007
1682,25.581494393992985
1683,12.52708195065324
2,1, 7, 1, 1, 3,30.00,45.00,Sunday
7,18.724999999999999
9,0.0
29,0.0
32,0.0
35,0.0
38,0.0
41,0.0
44,0.0
47,0.0
50,0.0
53,0.0
56,0.0
59,0.0
62,0.0
65,0.0
68,0.0
71,0.0
968,24.75299578491509
969,13.04040192459903
1010,23.988543040345588
1011,13.070452673813044
1052,25.533444088372624
1053,12.35069452422303
1094,24.900057589935299
1095,13.096483614233737
1136,25.769260962995714
1137,11.9927518593214
1178,25.698598656382044
1179,11.27441902400797
1220,24.875324772873353
1221,13.03268565492097
1262,24.821203823561285
1263,13.1566506650578
1304,24.806610524430409
1305,13.101430684655475
1346,25.439187847380614
1347,12.692267801885994
1388,23.96349123099317
1389,13.75304574831421
1430,23.9227931471647
1431,13.747560439264206
1472,23.92124476685432
1473,13.768641092663359
1514,24.582867248185939
1515,13.189183752228129
1556,24.913717179140446
1557,13.015970618155113
1598,24.849066961356774
1599,13.088884621334025
1640,24.848239335799496
1641,13.064228256274675
1682,25.52961812275466
1683,12.57676808113734
2,1, 7, 1, 1, 3,45.00,60.00,Sunday
7,18.4
9,0.0
29,0.0
32,0.0
35,0.0
38,0.0
41,0.0
44,0.0
47,0.0
50,0.0
53,0.0
56,0.0
59,0.0
62,0.0
65,0.0
68,0.0
71,0.0
968,24.753527174731759
969,13.036023477195427
1010,23.968638732725088
1011,13.11972202273895
1052,25.520906860585418
1053,12.377012600868023
1094,24.888791934137865
1095,13.113681022197293
1136,25.770967489492347
1137,11.987892631593806
1178,25.688831702008156
1179,11.277520781258757
1220,24.832035514227856
1221,13.107876298462628
1262,24.776500944041549
1263,13.231149736936033
1304,24.7646738715912
1305,13.1750974198012
1346,25.379962438551073
1347,12.774427346441023
1388,23.925298696481258
1389,13.807259086120057
1430,23.8830030141683
1431,13.80557831826647
1472,23.88361720651035
1473,13.823062762147698
1514,24.52482147291197
1515,13.260045708257684
1556,24.87871687563764
1557,13.076527534304017
1598,24.81296682637682
1599,13.151464099593385
1640,24.814471761954534
1641,13.124178080688742
1682,25.47632573985674
1683,12.64937364478219
2,1, 7, 1, 1, 4, 0.00,15.00,Sunday
7,18.049999999999998
9,0.0
29,0.0
32,0.0
35,0.0
38,0.0
41,0.0
44,0.0
47,0.0
50,0.0
53,0.0
56,0.0
59,0.0
62,0.0
65,0.0
68,0.0
71,0.0
968,24.75371374448142
969,13.03587794305035
1010,23.94410120932424
1011,13.176877306107013
1052,25.507701253783944
1053,12.408135416500962
1094,24.876979933953458
1095,13.135938475343823
1136,25.77207549090432
1137,11.987106010645645
1178,25.6777668224257
1179,11.284923386977907
1220,24.786769102429799
1221,13.189329655827212
1262,24.72970494008481
1263,13.31229002931762
1304,24.7205236313453
1305,13.25528501178979
1346,25.318988002321008
1347,12.862909960096303
1388,23.885402943222176
1389,13.868076813215844
1430,23.841397745216875
1431,13.87026478558493
1472,23.844161853684967
1473,13.884173656064134
1514,24.465699586490776
1515,13.336840746550753
1556,24.842013938821745
1557,13.143274451591172
1598,24.77508009123893
1599,13.220365085662685
1640,24.778927207485475
1641,13.190382906156382
1682,25.421800270887926
1683,12.727800694677724
2,1, 7, 1, 1, 4,15.00,30.00,Sunday
7,17.7
9,0.0
29,0.0
32,0.0
35,0.0
38,0.0
41,0.0
44,0.0
47,0.0
50,0.0
53,0.0
56,0.0
59,0.0
62,0.0
65,0.0
68,0.0
71,0.0
968,24.753559325152467
969,13.035998231344973
1010,23.914863308404013
1011,13.231152975230695
1052,25.49391960148271
1053,12.43475757171925
1094,24.86469413506466
1095,13.1548180389103
1136,25.772566946052217
1137,11.986756420026156
1178,25.665216436901419
1179,11.293327342281647
1220,24.73960723826071
1221,13.258310435054519
1262,24.680887718121207
1263,13.380468323006206
1304,24.674270315949589
1305,13.323158172341131
1346,25.256263572595829
1347,12.938804055746323
1388,23.844231457095348
1389,13.922431564393396
1430,23.79837718221398
1431,13.928172166064526
1472,23.802950604128229
1473,13.939182879761593
1514,24.40530694932325
1515,13.407081204100555
1556,24.80397651222042
1557,13.199716729519452
1598,24.735724276937689
1599,13.278418454295752
1640,24.741892406756674
1641,13.246355979451046
1682,25.36633384872407
1683,12.795511911332023
2,1, 7, 1, 1, 4,30.00,45.00,Sunday
7,17.35
9,0.0
29,0.0
32,0.0
35,0.0
38,0.0
41,0.0
44,0.0
47,0.0
50,0.0
53,0.0
56,0.0
59,0.0
62,0.0
65,0.0
68,0.0
71,0.0
968,24.75311363264203
969,13.036345737892633
1010,23.881416435755818
1011,13.280183362520168
1052,25.479743873868569
1053,12.455129799023059
1094,24.85200335578483
1095,13.168945551075485
1136,25.772456534374436
1137,11.986835009163164
1178,25.651182912974435
1179,11.302731964683737
1220,24.691078868532725
1221,13.310455734700705
1262,24.6306050109172
1263,13.43109670118858
1304,24.626469357293236
1305,13.374317520344468
1346,25.192339573871104
1347,12.997636029063554
1388,23.802280865969249
1389,13.967421025657229
1430,23.754409859838604
1431,13.976315790666705
1472,23.760831769826713
1473,13.98489312601798
1514,24.34448858182821
1515,13.46756138114775
1556,24.765125388415897
1557,13.24206303648793
1598,24.69542713566161
1599,13.32165805750275
1640,24.703831328547595
1641,13.288341045868127
1682,25.310412574618558
1683,12.848675242276825
2,1, 7, 1, 1, 4,45.00,60.00,Sunday
7,17.0
9,0.0
29,0.0
32,0.0
35,0.0
38,0.0
41,0.0
44,0.0
47,0.0
50,0.0
53,0.0
56,0.0
59,0.0
62,0.0
65,0.0
68,0.0
71,0.0
968,24.752401180999486
969,13.036900433446484
1010,23.84445923015034
1011,13.32370864026645
1052,25.465302036508878
1053,12.469352176622344
1094,24.838939644029176
1095,13.178425495960778
1136,25.771787248628337
1137,11.98731062134371
1178,25.635789618052816
1179,11.313058131088268
1220,24.641601820818076
1221,13.346462498613587
1262,24.579304523681996
1263,13.464935448374432
1304,24.5775641343435
1305,13.409442434308222
1346,25.12783730943721
1347,13.039967159172566
1388,23.759860984057864
1389,14.003131729798732
1430,23.709794282504185
1431,14.014821573247593
1472,23.717846509967865
1473,14.021617756061558
1514,24.283589702449669
1515,13.51833572626725
1556,24.725798827447809
1557,13.270780973093267
1598,24.654557625972776
1599,13.350599585643814
1640,24.665110540093047
1641,13.316788244941066
1682,25.254373011629057
1683,12.887773833058658
2,1, 7, 1, 1, 5, 0.00,15.00,Sunday
7,17.0
9,0.0
29,0.0
32,0.0
35,0.0
38,0.0
41,0.0
44,0.0
47,0.0
50,0.0
53,0.0
56,0.0
59,0.0
62,0.0
65,0.0
68,0.0
71,0.0
968,24.75144098812867
969,13.041613459326888
1010,23.803839456243908
1011,13.366494049378375
1052,25.448457098043496
1053,12.482931207134648
1094,24.824082355539976
1095,13.188309937894053
1136,25.770616531429388
1137,11.991788006101166
1178,25.61917997940939
1179,11.32765601672522
1220,24.594896930220295
1221,13.367719290134799
1262,24.530946969257064
1263,13.483085922449107
1304,24.53177627658969
1305,13.42949814698037
1346,25.066331036485719
1347,13.067122256670756
1388,23.723254521553768
1389,14.028532544467204
1430,23.671096700770737
1431,14.042467898783407
1472,23.681034243050484
1473,14.047706444788677
1514,24.229423719895583
1515,13.558043348056734
1556,24.690186066197538
1557,13.286734500325917
1598,24.61757927833758
1599,13.365886789442375
1640,24.630378823256846
1641,13.332202197246854
1682,25.202275764948405
1683,12.913705104303883
2,1, 7, 1, 1, 5,15.00,30.00,Sunday
7,17.0
9,0.0
29,0.0
32,0.0
35,0.0
38,0.0
41,0.0
44,0.0
47,0.0
50,0.0
53,0.0
56,0.0
59,0.0
62,0.0
65,0.0
68,0.0
71,0.0
968,24.750290465906596
969,13.046474872274438
1010,23.761307689432763
1011,13.402990866847741
1052,25.429325736268529
1053,12.491716758588714
1094,24.80790560057242
1095,13.193882389684199
1136,25.76902309792821
1137,11.996567017251586
1178,25.60155563580411
1179,11.342956738811031
1220,24.55060177718233
1221,13.369900260931106
1262,24.48515318486037
1263,13.481134737405942
1304,24.488534476567748
1305,13.430294551006226
1346,25.00775380698481
1347,13.074529825464975
1388,23.69197281646771
1389,14.03924031963074
1430,23.637758554032169
1431,14.05493107794922
1472,23.64989524191157
1473,14.058787631941256
1514,24.18154350224225
1515,13.582393307442074
1556,24.657819258597905
1557,13.285693833286985
1598,24.583969577785497
1599,13.363288998441286
1640,24.599230538917359
1641,13.330295101734347
1682,25.15408316604755
1683,12.921963103737685
2,1, 7, 1, 1, 5,30.00,45.00,Sunday
7,17.0
9,187.0
29,0.0
32,0.0
35,0.0
38,0.0
41,0.0
44,0.0
47,0.0
50,0.0
53,0.0
56,0.0
59,0.0
62,0.0
65,0.0
68,0.0
71,0.0
968,24.753139703796398
969,13.048219426178529
1010,23.741953613478459
1011,13.41480752856976
1052,25.420879199145163
1053,12.493305584970916
1094,24.802931046810529
1095,13.193885664393079
1136,25.77077558278947
1137,11.998967488999725
1178,25.59378782540967
1179,11.351636225732
1220,24.747174948188467
1221,13.192306944108318
1262,24.858188861111608
1263,13.16079903903691
1304,24.475742821697179
1305,13.418492444687294
1346,24.98475743178757
1347,13.068825356206658
1388,23.90769791623772
1389,13.848016522539158
1430,24.02768666508876
1431,13.719049264262747
1472,23.64890357895304
1473,14.049208747901906
1514,24.170720882895926
1515,13.580755819701914
1556,24.865730726930879
1557,13.104598759290827
1598,24.968758322644427
1599,13.041740110909707
1640,24.595281503651657
1641,13.315866764046316
1682,25.140294071889345
1683,12.914099493904978
2,1, 7, 1, 1, 5,45.00,60.00,Sunday
7,17.0
9,302.0
29,0.0
32,0.0
35,0.0
38,0.0
41,0.0
44,0.0
47,0.0
50,0.0
53,0.0
56,0.0
59,0.0
62,0.0
65,0.0
68,0.0
71,0.0
968,24.76341492558433
969,13.044177676668183
1010,23.73097169375879
1011,13.416818540513097
1052,25.413793684944
1053,12.489796400423679
1094,24.798489956122937
1095,13.189359721238319
1136,25.779746973166156
1137,11.996233908150277
1178,25.588908251093018
1179,11.35837425836274
1220,24.974623294136209
1221,12.980391881708313
1262,25.351462599919
1263,12.74367532630222
1304,24.466230817969639
1305,13.390507409988658
1346,24.962803152046179
1347,13.047752848191263
1388,24.157575409025598
1389,13.624499554466779
1430,24.5709808977512
1431,13.263302262916156
1472,23.654411765552987
1473,14.026692709019923
1514,24.16229087303879
1515,13.569840817286819
1556,25.10715106345628
1557,12.889695725971443
1598,25.478158185606195
1599,12.624075091025646
1640,24.597402293589178
1641,13.285479448065125
1682,25.128909035071119
1683,12.89274157247824
2,1, 7, 1, 1, 6, 0.00,15.00,Sunday
7,17.75
9,417.0
29,2.646933269099131
32,2.646933269099131
35,2.646933269099131
38,0.5579967629445377
41,0.3532581080287722
44,0.5579967629445377
47,0.3532349359652739
50,0.5579967629445377
53,0.3532581080287722
56,0.5579967629445377
59,0.3532349359652739
62,0.5579967629445377
65,0.3532581080287722
68,0.5579967629445377
71,0.3532349359652739
968,24.82413660955043
969,13.04535866120406
1010,23.75759936062641
1011,13.39621748624479
1052,25.42901005685312
1053,12.476558062906463
1094,24.810021077125918
1095,13.178730816780562
1136,25.838408663223964
1137,12.00366425715333
1178,25.637267214957857
1179,11.374271923578214
1220,25.289485909297384
1221,12.757898739934351
1262,26.14167461371461
1263,12.1785820462643
1304,24.549543493982364
1305,13.340766216410556
1346,25.033358544048967
1347,13.00812692075295
1388,24.50881885300508
1389,13.371523501592752
1430,25.41880745879499
1431,12.64243958125013
1472,23.74998708688337
1473,13.976034690875537
1514,24.24403024363302
1515,13.533981635508257
1556,25.436176001963355
1557,12.663472757407302
1598,26.28610598646626
1599,12.058651040010553
1640,24.68952851535891
1641,13.234828171363173
1682,25.208175610210114
1683,12.853687464593346
2,1, 7, 1, 1, 6,15.00,30.00,Sunday
7,18.5
9,532.0
29,2.646933269099131
32,2.646933269099131
35,2.646933269099131
38,0.5579967629445377
41,0.3532581080287722
44,0.5579967629445377
47,0.3532349359652739
50,0.5579967629445377
53,0.3532581080287722
56,0.5579967629445377
59,0.3532349359652739
62,0.5579967629445377
65,0.3532581080287722
68,0.5579967629445377
71,0.3532349359652739
968,24.905412726811496
969,13.0773003439582
1010,23.87696829989105
1011,13.299748305859956
1052,25.484471702170319
1053,12.433452266769443
1094,24.84452525646812
1095,13.139768186173673
1136,25.611392366761007
1137,12.238306441244433
1178,25.61210325466933
1179,11.486194527146012
1220,25.592659305782015
1221,12.563978336596139
1262,27.024241920776754
1263,11.589676270460523
1304,24.52939104588542
1305,13.382320601645022
1346,24.918392018617085
1347,13.121976502093848
1388,25.020967085951296
1389,13.042875781512356
1430,26.710736808644137
1431,11.794979929972806
1472,23.89854115075304
1473,13.926126376265107
1514,24.36752857865408
1515,13.523418356145776
1556,25.520423122750665
1557,12.614889206581859
1598,26.719702176464098
1599,11.738045066819759
1640,24.376858514573799
1641,13.478699579981518
1682,24.62567317918653
1683,13.285202648757674
2,1, 7, 1, 1, 6,30.00,45.00,Sunday
7,19.25
9,592.0
29,2.646933269099131
32,2.646933269099131
35,2.646933269099131
38,0.5579967629445377
41,0.3532581080287722
44,0.5579967629445377
47,0.3532349359652739
50,0.5579967629445377
53,0.3532581080287722
56,0.5579967629445377
59,0.3532349359652739
62,0.5579967629445377
65,0.3532581080287722
68,0.5579967629445377
71,0.3532349359652739
968,24.559760230649578
969,13.356838092128126
1010,24.138961463828946
1011,13.122554474955619
1052,25.346813707399528
1053,12.541041430621485
1094,24.88100444846099
1095,13.117180932848017
1136,24.711863329726307
1137,12.871074328526199
1178,24.59599318368922
1179,12.24629090097185
1220,24.625643225818103
1221,13.163586662157421
1262,25.490467753894785
1263,12.420973053724979
1304,23.284910676665797
1305,14.198933397006315
1346,23.10470111682471
1347,14.287116141018473
1388,24.915566610343597
1389,13.144834587247463
1430,26.57389250780337
1431,11.879639040906462
1472,23.60351702735729
1473,14.179518827350483
1514,23.808090114791765
1515,13.979693871039597
1556,24.90430637805226
1557,12.983480759493056
1598,25.63935718108909
1599,12.294175583281682
1640,23.493961976265159
1641,14.043597179353359
1682,23.31883788104728
1683,14.104598900473138
2,1, 7, 1, 1, 6,45.00,60.00,Sunday
7,20.0
9,652.0
29,2.646933269099131
32,2.646933269099131
35,2.646933269099131
38,0.5579967629445377
41,0.3532581080287722
44,0.5579967629445377
47,0.3532349359652739
50,0.5579967629445377
53,0.3532581080287722
56,0.5579967629445377
59,0.3532349359652739
62,0.5579967629445377
65,0.3532581080287722
68,0.5579967629445377
71,0.3532349359652739
968,23.032521478518704
969,14.459108268185418
1010,24.115797157772197
1011,13.13600168088514
1052,25.30962791723859
1053,12.543663167599302
1094,24.556469301508036
1095,13.332311988017216
1136,24.952359568070109
1137,12.696971820057259
1178,24.824867072686084
1179,12.162180886373815
1220,25.313347135729136
1221,12.56872751684507
1262,27.350474477635765
1263,11.0212382025555
1304,24.024118581311563
1305,13.459747484760858
1346,24.14117440870287
1347,13.248678821345525
1388,24.08213210741344
1389,13.705668152835026
1430,25.319434799046407
1431,12.511885172549669
1472,22.511854339452737
1473,14.928998122132884
1514,22.159742311665924
1515,15.094103670919168
1556,25.575169055542287
1557,12.445069675436935
1598,27.559492430070205
1599,10.9086757195794
1640,24.234406304060636
1641,13.353884147713347
1682,24.37281349404674
1683,13.124464163080935
2,1, 7, 1, 1, 7, 0.00,15.00,Sunday
7,20.75
9,712.0
29,2.646933269099131
32,2.646933269099131
35,2.646933269099131
38,0.5579967629445377
41,0.3532581080287722
44,0.5579967629445377
47,0.3532349359652739
50,0.5579967629445377
53,0.3532581080287722
56,0.5579967629445377
59,0.3532349359652739
62,0.5579967629445377
65,0.3532581080287722
68,0.5579967629445377
71,0.3532349359652739
968,23.720219049223258
969,13.850708462890602
1010,24.36467435376728
1011,12.966388628661339
1052,25.337112121402734
1053,12.525912651055475
1094,24.59633355445736
1095,13.242901786265279
1136,24.34563661058737
1137,13.278608312331765
1178,24.21380655301421
1179,12.792641650076672
1220,24.621428247132465
1221,13.188728033266607
1262,25.936517075377784
1263,12.105724023146309
1304,23.029702961590325
1305,14.403465731891549
1346,22.559500708153224
1347,14.750217416772119
1388,24.798939850733846