Program Version,EnergyPlus, Version 9.3.0-baff08990c, YMD=2021.12.10 12:55
1,5,Environment Title[],Latitude[deg],Longitude[deg],Time Zone[],Elevation[m]
2,8,Day of Simulation[],Month[],Day of Month[],DST Indicator[1=yes 0=no],Hour[],StartMinute[],EndMinute[],DayType
3,5,Cumulative Day of Simulation[],Month[],Day of Month[],DST Indicator[1=yes 0=no],DayType  ! When Daily Meters Requested
4,2,Cumulative Days of Simulation[],Month[]  ! When Monthly Meters Requested
5,1,Cumulative Days of Simulation[] ! When Run Period Meters Requested
6,1,Calendar Year of Simulation[] ! When Annual Meters Requested
75,1,Electricity:Facility [J] !Hourly
1821,1,ElectricityNet:Facility [J] !Hourly
2075,1,Gas:Facility [J] !Hourly
111,1,InteriorLights:Electricity [J] !Hourly
543,1,InteriorEquipment:Electricity [J] !Hourly
End of Data Dictionary
1,RUN PERIOD 1,  39.72,-104.75,  -7.00,1726.00
2,1, 7, 1, 1, 1, 0.00,60.00,Sunday
75,46358994.54911919
111,3861201.791338584
543,33399901.5013581
1821,46358994.54911918
2075,6791184.0
2,1, 7, 1, 1, 2, 0.00,60.00,Sunday
75,46359235.70955594
111,3861201.791338584
543,33399901.5013581
1821,46359235.70955593
2075,6791184.0
2,1, 7, 1, 1, 3, 0.00,60.00,Sunday
75,46359235.70955594
111,3861201.791338584
543,33399901.5013581
1821,46359235.70955593
2075,6791184.0
2,1, 7, 1, 1, 4, 0.00,60.00,Sunday
75,46359235.70955594
111,3861201.791338584
543,33399901.5013581
1821,46359235.70955593
2075,6791184.0
2,1, 7, 1, 1, 5, 0.00,60.00,Sunday
75,42113665.70955594
111,3861201.791338584
543,33399901.5013581
1821,42113665.70955593
2075,6791184.0
2,1, 7, 1, 1, 6, 0.00,60.00,Sunday
75,65065031.446187097
111,4950671.375753559
543,41385398.90873409
1821,65065031.446187097
2075,6791184.0
2,1, 7, 1, 1, 7, 0.00,60.00,Sunday
75,91129737.01596929
111,5189159.43383782
543,41385398.90873409
1821,91129737.01596928
2075,6791184.0
2,1, 7, 1, 1, 8, 0.00,60.00,Sunday
75,110460850.23981875
111,5173573.547439723
543,41385398.90873409
1821,110460850.23981875
2075,6791184.0
2,1, 7, 1, 1, 9, 0.00,60.00,Sunday
75,99250427.55205249
111,5173573.547439723
543,41385398.90873409
1821,99250427.55205249
2075,6791184.0
2,1, 7, 1, 1,10, 0.00,60.00,Sunday
75,105913112.33769791
111,5173573.547439723
543,41385398.90873409
1821,105913112.33769791
2075,6791184.0
2,1, 7, 1, 1,11, 0.00,60.00,Sunday
75,112141761.62365152
111,5173573.547439723
543,41385398.90873409
1821,112141761.6236515
2075,6791184.0
2,1, 7, 1, 1,12, 0.00,60.00,Sunday
75,98999531.01781236
111,5173573.547439723
543,41385398.90873409
1821,98999531.01781234
2075,6791184.0
2,1, 7, 1, 1,13, 0.00,60.00,Sunday
75,102546451.88008319
111,5173573.547439723
543,41385398.90873409
1821,102546451.8800832
2075,6791184.0
2,1, 7, 1, 1,14, 0.00,60.00,Sunday
75,108654291.56681997
111,5173573.547439723
543,41385398.90873409
1821,108654291.56681997
2075,6791184.0
2,1, 7, 1, 1,15, 0.00,60.00,Sunday
75,103704938.59646748
111,5173573.547439723
543,41385398.90873409
1821,103704938.59646748
2075,6791184.0
2,1, 7, 1, 1,16, 0.00,60.00,Sunday
75,116012504.26077149
111,5173573.547439723
543,41385398.90873409
1821,116012504.26077149
2075,6791184.0
2,1, 7, 1, 1,17, 0.00,60.00,Sunday
75,124273117.66783944
111,5173573.547439723
543,41385398.90873409
1821,124273117.66783944
2075,6791184.0
2,1, 7, 1, 1,18, 0.00,60.00,Sunday
75,95091982.66199579
111,4352211.200979038
543,33399901.5013581
1821,95091982.66199579
2075,6791184.0
2,1, 7, 1, 1,19, 0.00,60.00,Sunday
75,98407545.40618818
111,3815601.6479500595
543,33399901.5013581
1821,98407545.40618819
2075,6791184.0
2,1, 7, 1, 1,20, 0.00,60.00,Sunday
75,94646867.77202167
111,3953587.2070641166
543,33399901.5013581
1821,94646867.77202167
2075,6791184.0
2,1, 7, 1, 1,21, 0.00,60.00,Sunday
75,48904615.70955594
111,3861201.791338584
543,33399901.5013581
1821,48904615.70955593
2075,6791184.0
2,1, 7, 1, 1,22, 0.00,60.00,Sunday
75,48904615.70955594
111,3861201.791338584
543,33399901.5013581
1821,48904615.70955593
2075,6791184.0
2,1, 7, 1, 1,23, 0.00,60.00,Sunday
75,48904615.70955594
111,3861201.791338584
543,33399901.5013581
1821,48904615.70955593
2075,6791184.0
2,1, 7, 1, 1,24, 0.00,60.00,Sunday
75,46359235.70955594
111,3861201.791338584
543,33399901.5013581
1821,46359235.70955593
2075,6791184.0
2,2, 7, 2, 1, 1, 0.00,60.00,Monday
75,57609860.11373618
111,3861201.791338584
543,44533202.00181078
1821,57609860.11373618
2075,6791184.0
2,2, 7, 2, 1, 2, 0.00,60.00,Monday
75,57609860.11373618
111,3861201.791338584
543,44533202.00181078
1821,57609860.11373618
2075,6791184.0
2,2, 7, 2, 1, 3, 0.00,60.00,Monday
75,57609860.11373618
111,3861201.791338584
543,44533202.00181078
1821,57609860.11373618
2075,6791184.0
2,2, 7, 2, 1, 4, 0.00,60.00,Monday
75,57609860.11373618
111,3861201.791338584
543,44533202.00181078
1821,57609860.11373618
2075,6791184.0
2,2, 7, 2, 1, 5, 0.00,60.00,Monday
75,53364290.11373618
111,3861201.791338584
543,44533202.00181078
1821,53364290.11373618
2075,6791184.0
2,2, 7, 2, 1, 6, 0.00,60.00,Monday
75,78528608.85041228
111,8843697.577141025
543,55180531.87831212
1821,78528608.85041227
2075,6791184.0
2,2, 7, 2, 1, 7, 0.00,60.00,Monday
75,157685664.62419705
111,31041441.284638365
543,95796493.41677365
1821,157685664.62419708
2075,6791184.0
2,2, 7, 2, 1, 8, 0.00,60.00,Monday
75,377698250.0383674
111,93124323.85391507
543,204227663.7591693
1821,377698250.0383674
2075,6791184.0
2,2, 7, 2, 1, 9, 0.00,60.00,Monday
75,362920959.77910247
111,93124323.85391507
543,174055806.61631219
1821,362920959.77910247
2075,6791184.0
2,2, 7, 2, 1,10, 0.00,60.00,Monday
75,378335750.9132138
111,93124323.85391507
543,167093070.35257594
1821,378335750.91321387
2075,6791184.0
2,2, 7, 2, 1,11, 0.00,60.00,Monday
75,416858352.44575116
111,93124323.85391507
543,174055806.61631219
1821,416858352.44575116
2075,11377017.189157553
2,2, 7, 2, 1,12, 0.00,60.00,Monday
75,424708881.43039056
111,93124323.85391507
543,177667514.30607478
1821,424708881.4303905
2075,25854728.67096902
2,2, 7, 2, 1,13, 0.00,60.00,Monday
75,446706621.2741837
111,93124323.85391507
543,179858086.8360924
1821,446706621.2741837
2075,25646713.092665454
2,2, 7, 2, 1,14, 0.00,60.00,Monday
75,445640952.2028982
111,93124323.85391507
543,167093070.35257594
1821,445640952.2028982
2075,15527607.907754366
2,2, 7, 2, 1,15, 0.00,60.00,Monday
75,454627673.29906526
111,93124323.85391507
543,167093070.35257594
1821,454627673.29906526
2075,15510027.058943509
2,2, 7, 2, 1,16, 0.00,60.00,Monday
75,469684858.3692729
111,93124323.85391507
543,177537174.74818034
1821,469684858.3692728
2075,20384344.062476934
2,2, 7, 2, 1,17, 0.00,60.00,Monday
75,353168122.34754899
111,51735735.47439728
543,140923939.57316489
1821,353168122.347549
2075,11045174.309882824
2,2, 7, 2, 1,18, 0.00,60.00,Monday
75,223035023.37487
111,31077694.462052164
543,69106004.40578464
1821,223035023.37487004
2075,10981362.499332712
2,2, 7, 2, 1,19, 0.00,60.00,Monday
75,198164486.96894346
111,32566998.5164366
543,59822356.05413629
1821,198164486.96894349
2075,6791184.0
2,2, 7, 2, 1,20, 0.00,60.00,Monday
75,178975572.43699906
111,25995717.586298039
543,59822356.05413629
1821,178975572.43699906
2075,10917850.085450829
2,2, 7, 2, 1,21, 0.00,60.00,Monday
75,170439704.64864186
111,26303943.895732467
543,55180531.87831212
1821,170439704.64864189
2075,6791184.0
2,2, 7, 2, 1,22, 0.00,60.00,Monday
75,80271371.63626296
111,13151971.947866233
543,55180531.87831212
1821,80271371.63626296
2075,6791184.0
2,2, 7, 2, 1,23, 0.00,60.00,Monday
75,73691760.40172555
111,6575985.9739331169
543,55180531.87831212
1821,73691760.40172553
2075,6791184.0
2,2, 7, 2, 1,24, 0.00,60.00,Monday
75,58551584.40070834
111,4802369.727932371
543,44533202.00181078
1821,58551584.40070834
2075,6791184.0
2,3, 7, 3, 1, 1, 0.00,60.00,Tuesday
75,57609860.11373618
111,3861201.791338584
543,44533202.00181078
1821,57609860.11373618
2075,6791184.0
2,3, 7, 3, 1, 2, 0.00,60.00,Tuesday
75,57609860.11373618
111,3861201.791338584
543,44533202.00181078
1821,57609860.11373618
2075,6791184.0
2,3, 7, 3, 1, 3, 0.00,60.00,Tuesday
75,57609860.11373618
111,3861201.791338584
543,44533202.00181078
1821,57609860.11373618
2075,6791184.0
2,3, 7, 3, 1, 4, 0.00,60.00,Tuesday
75,57609860.11373618
111,3861201.791338584
543,44533202.00181078
1821,57609860.11373618
2075,6791184.0
2,3, 7, 3, 1, 5, 0.00,60.00,Tuesday
75,53364290.11373618
111,3861201.791338584
543,44533202.00181078
1821,53364290.11373618
2075,6791184.0
2,3, 7, 3, 1, 6, 0.00,60.00,Tuesday
75,78894788.04760914
111,9209764.315673132
543,55180531.87831212
1821,78894788.04760912
2075,6791184.0
2,3, 7, 3, 1, 7, 0.00,60.00,Tuesday
75,160266132.99484486
111,31608675.09207168
543,95796493.41677365
1821,160266132.99484489
2075,6791184.0
2,3, 7, 3, 1, 8, 0.00,60.00,Tuesday
75,327603263.36559119
111,93124323.85391507
543,204227663.7591693
1821,327603263.3655912
2075,6791184.0
2,3, 7, 3, 1, 9, 0.00,60.00,Tuesday
75,308349756.5592316
111,93124323.85391507
543,174055806.61631219
1821,308349756.5592316
2075,6791184.0
2,3, 7, 3, 1,10, 0.00,60.00,Tuesday
75,322917763.70676597
111,93124323.85391507
543,167093070.35257594
1821,322917763.70676597
2075,6791184.0
2,3, 7, 3, 1,11, 0.00,60.00,Tuesday
75,355940100.512067
111,93124323.85391507
543,174055806.61631219
1821,355940100.512067
2075,15964051.15232513
2,3, 7, 3, 1,12, 0.00,60.00,Tuesday
75,369124385.3717572
111,93124323.85391507
543,177667514.30607478
1821,369124385.37175729
2075,25857888.12519984
2,3, 7, 3, 1,13, 0.00,60.00,Tuesday
75,388711024.99067577
111,93124323.85391507
543,179858086.8360924
1821,388711024.99067577
2075,22387306.643397064
2,3, 7, 3, 1,14, 0.00,60.00,Tuesday
75,385547789.8397552
111,93124323.85391507
543,167093070.35257594
1821,385547789.8397552
2075,18570705.210901195
2,3, 7, 3, 1,15, 0.00,60.00,Tuesday
75,401880052.30699118
111,93124323.85391507
543,167093070.35257594
1821,401880052.3069911
2075,15517134.404530488
2,3, 7, 3, 1,16, 0.00,60.00,Tuesday
75,415393739.0303877
111,93124323.85391507
543,177537174.74818034
1821,415393739.03038778
2075,19673018.368023054
2,3, 7, 3, 1,17, 0.00,60.00,Tuesday
75,302947614.2929558
111,51735735.47439728
543,140923939.57316489
1821,302947614.2929558
2075,11735050.624775788
2,3, 7, 3, 1,18, 0.00,60.00,Tuesday
75,184766015.17121906
111,31053525.67710963
543,69106004.40578464
1821,184766015.17121906
2075,10963166.13397159
2,3, 7, 3, 1,19, 0.00,60.00,Tuesday
75,165597134.64980916
111,32247563.51753416
543,59822356.05413629
1821,165597134.64980919
2075,6791184.0
2,3, 7, 3, 1,20, 0.00,60.00,Tuesday
75,156174732.03431989
111,26041949.665500828
543,59822356.05413629
1821,156174732.03431989
2075,6791184.0
2,3, 7, 3, 1,21, 0.00,60.00,Tuesday
75,136900746.1943085
111,26303943.895732467
543,55180531.87831212
1821,136900746.19430847
2075,6791184.0
2,3, 7, 3, 1,22, 0.00,60.00,Tuesday
75,80271371.63626296
111,13151971.947866233
543,55180531.87831212
1821,80271371.63626296
2075,6791184.0
2,3, 7, 3, 1,23, 0.00,60.00,Tuesday
75,73691760.40172555
111,6575985.9739331169
543,55180531.87831212
1821,73691760.40172553
2075,6791184.0
2,3, 7, 3, 1,24, 0.00,60.00,Tuesday
75,58551584.40070834
111,4802369.727932371
543,44533202.00181078
1821,58551584.40070834
2075,6791184.0
2,4, 7, 4, 1, 1, 0.00,60.00,Holiday
75,46359235.70955594
111,3861201.791338584
543,33399901.5013581
1821,46359235.70955593
2075,6791184.0
2,4, 7, 4, 1, 2, 0.00,60.00,Holiday
75,46359235.70955594
111,3861201.791338584
543,33399901.5013581
1821,46359235.70955593
2075,6791184.0
2,4, 7, 4, 1, 3, 0.00,60.00,Holiday
75,46359235.70955594
111,3861201.791338584
543,33399901.5013581
1821,46359235.70955593
2075,6791184.0
2,4, 7, 4, 1, 4, 0.00,60.00,Holiday
75,46359235.70955594
111,3861201.791338584
543,33399901.5013581
1821,46359235.70955593
2075,6791184.0
2,4, 7, 4, 1, 5, 0.00,60.00,Holiday
75,42113665.70955594
111,3861201.791338584
543,33399901.5013581
1821,42113665.70955594
2075,6791184.0
2,4, 7, 4, 1, 6, 0.00,60.00,Holiday
75,47009393.55446322
111,4911708.241252566
543,41385398.90873409
1821,47009393.554463218
2075,6791184.0
2,4, 7, 4, 1, 7, 0.00,60.00,Holiday
75,59309629.353253599
111,5173573.547439723
543,41385398.90873409
1821,59309629.353253599
2075,6791184.0
2,4, 7, 4, 1, 8, 0.00,60.00,Holiday
75,74715001.49495626
111,5173573.547439723
543,41385398.90873409
1821,74715001.49495626
2075,6791184.0
2,4, 7, 4, 1, 9, 0.00,60.00,Holiday
75,84624852.2415602
111,5173573.547439723
543,41385398.90873409
1821,84624852.2415602
2075,6791184.0
2,4, 7, 4, 1,10, 0.00,60.00,Holiday
75,83524734.04418084
111,5173573.547439723
543,41385398.90873409
1821,83524734.04418084
2075,6791184.0
2,4, 7, 4, 1,11, 0.00,60.00,Holiday
75,96877015.37499997
111,5173573.547439723
543,41385398.90873409
1821,96877015.37499997
2075,6791184.0
2,4, 7, 4, 1,12, 0.00,60.00,Holiday
75,89400576.7051686
111,5173573.547439723
543,41385398.90873409
1821,89400576.7051686
2075,6791184.0
2,4, 7, 4, 1,13, 0.00,60.00,Holiday
75,89145800.0017504
111,5173573.547439723
543,41385398.90873409
1821,89145800.00175041
2075,6791184.0
2,4, 7, 4, 1,14, 0.00,60.00,Holiday
75,97903780.80960962
111,5173573.547439723
543,41385398.90873409
1821,97903780.80960962
2075,6791184.0
2,4, 7, 4, 1,15, 0.00,60.00,Holiday
75,116141587.34015765
111,5173573.547439723
543,41385398.90873409
1821,116141587.34015765
2075,6791184.0
2,4, 7, 4, 1,16, 0.00,60.00,Holiday
75,101861903.55110845
111,5173573.547439723
543,41385398.90873409
1821,101861903.55110845
2075,6791184.0
2,4, 7, 4, 1,17, 0.00,60.00,Holiday
75,93172296.53232402
111,5194881.498313956
543,41385398.90873409
1821,93172296.53232402
2075,6791184.0
2,4, 7, 4, 1,18, 0.00,60.00,Holiday
75,38414164.52786667
111,4407048.284462982
543,33399901.5013581
1821,38414164.52786667
2075,6791184.0
2,4, 7, 4, 1,19, 0.00,60.00,Holiday
75,37871545.10512692
111,3864651.4295380108
543,33399901.5013581
1821,37871545.10512692
2075,6791184.0
2,4, 7, 4, 1,20, 0.00,60.00,Holiday
75,46145485.70955594
111,3861201.791338584
543,33399901.5013581
1821,46145485.70955593
2075,6791184.0
2,4, 7, 4, 1,21, 0.00,60.00,Holiday
75,48904615.70955594
111,3861201.791338584
543,33399901.5013581
1821,48904615.70955593
2075,6791184.0
2,4, 7, 4, 1,22, 0.00,60.00,Holiday
75,48904615.70955594
111,3861201.791338584
543,33399901.5013581
1821,48904615.70955593
2075,6791184.0
2,4, 7, 4, 1,23, 0.00,60.00,Holiday
75,48904615.70955594
111,3861201.791338584
543,33399901.5013581
1821,48904615.70955593
2075,6791184.0
2,4, 7, 4, 1,24, 0.00,60.00,Holiday
75,46359235.70955594
111,3861201.791338584
543,33399901.5013581
1821,46359235.70955593
2075,6791184.0
2,5, 7, 5, 1, 1, 0.00,60.00,Thursday
75,57609860.11373618
111,3861201.791338584
543,44533202.00181078
1821,57609860.11373618
2075,6791184.0
2,5, 7, 5, 1, 2, 0.00,60.00,Thursday
75,57609860.11373618
111,3861201.791338584
543,44533202.00181078
1821,57609860.11373618
2075,6791184.0
2,5, 7, 5, 1, 3, 0.00,60.00,Thursday
75,57609860.11373618
111,3861201.791338584
543,44533202.00181078
1821,57609860.11373618
2075,6791184.0
2,5, 7, 5, 1, 4, 0.00,60.00,Thursday
75,57609860.11373618
111,3861201.791338584
543,44533202.00181078
1821,57609860.11373618
2075,6791184.0
2,5, 7, 5, 1, 5, 0.00,60.00,Thursday
75,53364290.11373618
111,3861201.791338584
543,44533202.00181078
1821,53364290.11373618
2075,6791184.0
2,5, 7, 5, 1, 6, 0.00,60.00,Thursday
75,96091602.1122791
111,8936042.30367247
543,55180531.87831212
1821,96091602.11227909
2075,6791184.0
2,5, 7, 5, 1, 7, 0.00,60.00,Thursday
75,174375552.21195127
111,31041441.284638365
543,95796493.41677365
1821,174375552.2119513
2075,6791184.0
2,5, 7, 5, 1, 8, 0.00,60.00,Thursday
75,394611392.7974189
111,93124323.85391507
543,204227663.7591693
1821,394611392.7974189
2075,6791184.0
2,5, 7, 5, 1, 9, 0.00,60.00,Thursday
75,384323506.90828219
111,93124323.85391507
543,174055806.61631219
1821,384323506.90828219
2075,6791184.0
2,5, 7, 5, 1,10, 0.00,60.00,Thursday
75,399393426.0567697
111,93124323.85391507
543,167093070.35257594
1821,399393426.0567697
2075,6791184.0
2,5, 7, 5, 1,11, 0.00,60.00,Thursday
75,413154284.7057912
111,93124323.85391507
543,174055806.61631219
1821,413154284.70579126
2075,11373378.420319783
2,5, 7, 5, 1,12, 0.00,60.00,Thursday
75,420134973.7974998
111,93124323.85391507
543,177667514.30607478
1821,420134973.7974998
2075,25834386.583051739
2,5, 7, 5, 1,13, 0.00,60.00,Thursday
75,440093142.2944883
111,93124323.85391507
543,179858086.8360924
1821,440093142.2944882
2075,25628348.450911918
2,5, 7, 5, 1,14, 0.00,60.00,Thursday
75,434383317.4199263
111,93124323.85391507
543,167093070.35257594
1821,434383317.4199263
2075,15524276.70154123
2,5, 7, 5, 1,15, 0.00,60.00,Thursday
75,424697955.186304
111,93124323.85391507
543,167093070.35257594
1821,424697955.186304
2075,15491671.87263
2,5, 7, 5, 1,16, 0.00,60.00,Thursday
75,433862811.53422179
111,93124323.85391507
543,177537174.74818034
1821,433862811.5342217
2075,20378366.61716144
2,5, 7, 5, 1,17, 0.00,60.00,Thursday
75,307550308.3387947
111,51735735.47439728
543,140923939.57316489
1821,307550308.3387947
2075,11028065.81625089
2,5, 7, 5, 1,18, 0.00,60.00,Thursday
75,183966926.68351508
111,31089778.854523429
543,69106004.40578464
1821,183966926.68351508
2075,10982702.280268062
2,5, 7, 5, 1,19, 0.00,60.00,Thursday
75,162010936.5515261
111,32058964.83706893
543,59822356.05413629
1821,162010936.5515261
2075,6791184.0
2,5, 7, 5, 1,20, 0.00,60.00,Thursday
75,139357478.9964656
111,25960734.005189159
543,59822356.05413629
1821,139357478.9964656
2075,6791184.0
2,5, 7, 5, 1,21, 0.00,60.00,Thursday
75,121915742.52630216
111,26303943.895732467
543,55180531.87831212
1821,121915742.52630216
2075,6791184.0
2,5, 7, 5, 1,22, 0.00,60.00,Thursday
75,80271371.63626296
111,13151971.947866233
543,55180531.87831212
1821,80271371.63626296
2075,6791184.0
2,5, 7, 5, 1,23, 0.00,60.00,Thursday
75,73691760.40172555
111,6575985.9739331169
543,55180531.87831212
1821,73691760.40172553
2075,6791184.0
2,5, 7, 5, 1,24, 0.00,60.00,Thursday
75,58551584.40070834
111,4802369.727932371
543,44533202.00181078
1821,58551584.40070834
2075,6791184.0
2,6, 7, 6, 1, 1, 0.00,60.00,Friday
75,57609860.11373618
111,3861201.791338584
543,44533202.00181078
1821,57609860.11373618
2075,6791184.0
2,6, 7, 6, 1, 2, 0.00,60.00,Friday
75,57609860.11373618
111,3861201.791338584
543,44533202.00181078
1821,57609860.11373618
2075,6791184.0
2,6, 7, 6, 1, 3, 0.00,60.00,Friday
75,57609860.11373618
111,3861201.791338584
543,44533202.00181078
1821,57609860.11373618
2075,6791184.0
2,6, 7, 6, 1, 4, 0.00,60.00,Friday
75,57609860.11373618
111,3861201.791338584
543,44533202.00181078
1821,57609860.11373618
2075,6791184.0
2,6, 7, 6, 1, 5, 0.00,60.00,Friday
75,53364290.11373618
111,3861201.791338584
543,44533202.00181078
1821,53364290.11373618
2075,6791184.0
2,6, 7, 6, 1, 6, 0.00,60.00,Friday
75,99389682.36821592
111,8870841.483339819
543,55180531.87831212
1821,99389682.3682159
2075,6791184.0
2,6, 7, 6, 1, 7, 0.00,60.00,Friday
75,194308984.23403777
111,31041441.284638365
543,95796493.41677365
1821,194308984.23403777
2075,6791184.0
2,6, 7, 6, 1, 8, 0.00,60.00,Friday
75,418690968.63754346
111,93124323.85391507
543,204227663.7591693
1821,418690968.63754346
2075,6791184.0
2,6, 7, 6, 1, 9, 0.00,60.00,Friday
75,408234695.95373746
111,93124323.85391507
543,174055806.61631219
1821,408234695.9537374
2075,6791184.0
2,6, 7, 6, 1,10, 0.00,60.00,Friday
75,413550708.57843437
111,93124323.85391507
543,167093070.35257594
1821,413550708.57843437
2075,6791184.0
2,6, 7, 6, 1,11, 0.00,60.00,Friday
75,432903534.3942749
111,93124323.85391507
543,174055806.61631219
1821,432903534.3942749
2075,15952080.269391153
2,6, 7, 6, 1,12, 0.00,60.00,Friday
75,448456051.49495127
111,93124323.85391507
543,177667514.30607478
1821,448456051.49495127
2075,25829330.761181665
2,6, 7, 6, 1,13, 0.00,60.00,Friday
75,477183312.47819319
111,93124323.85391507
543,179858086.8360924
1821,477183312.47819319
2075,25631618.988781576
2,6, 7, 6, 1,14, 0.00,60.00,Friday
75,461725921.3089953
111,93124323.85391507
543,167093070.35257594
1821,461725921.30899527
2075,15518455.056701672
2,6, 7, 6, 1,15, 0.00,60.00,Friday
75,459066319.86027577
111,93124323.85391507
543,167093070.35257594
1821,459066319.86027577
2075,15485491.448939085
2,6, 7, 6, 1,16, 0.00,60.00,Friday
75,469956672.7519027
111,93124323.85391507
543,177537174.74818034
1821,469956672.75190266
2075,20373199.328044036
2,6, 7, 6, 1,17, 0.00,60.00,Friday
75,351980474.2625955
111,51735735.47439728
543,140923939.57316489
1821,351980474.2625955
2075,11052565.97053493
2,6, 7, 6, 1,18, 0.00,60.00,Friday
75,210678674.43840886
111,31089778.854523429
543,69106004.40578464
1821,210678674.43840886
2075,10975689.522182782
2,6, 7, 6, 1,19, 0.00,60.00,Friday
75,189965827.52883546
111,32741947.93145877
543,59822356.05413629
1821,189965827.52883549
2075,6791184.0
2,6, 7, 6, 1,20, 0.00,60.00,Friday
75,175404126.256498
111,26108387.809161135
543,59822356.05413629
1821,175404126.25649805
2075,10931684.098751739
2,6, 7, 6, 1,21, 0.00,60.00,Friday
75,160683321.66875539
111,26303943.895732467
543,55180531.87831212
1821,160683321.66875539
2075,6791184.0
2,6, 7, 6, 1,22, 0.00,60.00,Friday
75,80271371.63626296
111,13151971.947866233
543,55180531.87831212
1821,80271371.63626296
2075,6791184.0
2,6, 7, 6, 1,23, 0.00,60.00,Friday
75,73691760.40172555
111,6575985.9739331169
543,55180531.87831212
1821,73691760.40172553
2075,6791184.0
2,6, 7, 6, 1,24, 0.00,60.00,Friday
75,58551584.40070834
111,4802369.727932371
543,44533202.00181078
1821,58551584.40070834
2075,6791184.0
2,7, 7, 7, 1, 1, 0.00,60.00,Saturday
75,46359235.70955594
111,3861201.791338584
543,33399901.5013581
1821,46359235.70955593
2075,6791184.0
2,7, 7, 7, 1, 2, 0.00,60.00,Saturday
75,46359235.70955594
111,3861201.791338584
543,33399901.5013581
1821,46359235.70955593
2075,6791184.0
2,7, 7, 7, 1, 3, 0.00,60.00,Saturday
75,46359235.70955594
111,3861201.791338584
543,33399901.5013581
1821,46359235.70955593
2075,6791184.0
2,7, 7, 7, 1, 4, 0.00,60.00,Saturday
75,46359235.70955594
111,3861201.791338584
543,33399901.5013581
1821,46359235.70955593
2075,6791184.0
2,7, 7, 7, 1, 5, 0.00,60.00,Saturday
75,42113665.70955594
111,3861201.791338584
543,33399901.5013581
1821,42113665.70955594
2075,6791184.0
2,7, 7, 7, 1, 6, 0.00,60.00,Saturday
75,99690233.82829502
111,8864478.759005152
543,55180531.87831212
1821,99690233.82829502
2075,6791184.0
2,7, 7, 7, 1, 7, 0.00,60.00,Saturday
75,144413045.45805267
111,10347147.094879447
543,73747828.58160882
1821,144413045.4580527
2075,6791184.0
2,7, 7, 7, 1, 8, 0.00,60.00,Saturday
75,197930220.69520829
111,31041441.284638365
543,85222049.46327476
1821,197930220.69520829
2075,6791184.0
2,7, 7, 7, 1, 9, 0.00,60.00,Saturday
75,220222965.47129406
111,31041441.284638365
543,93345241.77096707
1821,220222965.47129409
2075,6791184.0
2,7, 7, 7, 1,10, 0.00,60.00,Saturday
75,228546931.79804779
111,31041441.284638365
543,89863873.63909894
1821,228546931.7980478
2075,6791184.0
2,7, 7, 7, 1,11, 0.00,60.00,Saturday
75,243764172.6518169
111,31041441.284638365
543,97987065.94679125
1821,243764172.6518169
2075,6791184.0
2,7, 7, 7, 1,12, 0.00,60.00,Saturday
75,205683191.7975734
111,15520720.642319182
543,72652542.31660003
1821,205683191.7975734
2075,6791184.0
2,7, 7, 7, 1,13, 0.00,60.00,Saturday
75,204797541.15022023
111,15520720.642319182
543,63368893.96495168
1821,204797541.15022026
2075,6791184.0
2,7, 7, 7, 1,14, 0.00,60.00,Saturday
75,206960175.7734349
111,15520720.642319182
543,57566613.74517146
1821,206960175.7734349
2075,6791184.0
2,7, 7, 7, 1,15, 0.00,60.00,Saturday
75,203911759.85536156
111,15520720.642319182
543,52924789.569347288
1821,203911759.85536156
2075,6791184.0
2,7, 7, 7, 1,16, 0.00,60.00,Saturday
75,198598166.49239785
111,15520720.642319182
543,54085245.61330333
1821,198598166.49239785
2075,6791184.0
2,7, 7, 7, 1,17, 0.00,60.00,Saturday
75,156892425.1237547
111,5173573.547439723
543,48348135.17247035
1821,156892425.1237547
2075,6791184.0
2,7, 7, 7, 1,18, 0.00,60.00,Saturday
75,70235283.31270588
111,5173573.547439723
543,41385398.90873409
1821,70235283.31270586
2075,6791184.0
2,7, 7, 7, 1,19, 0.00,60.00,Saturday
75,38411598.31197276
111,4404486.135902858
543,33399901.5013581
1821,38411598.31197277
2075,6791184.0
2,7, 7, 7, 1,20, 0.00,60.00,Saturday
75,46145485.70955594
111,3861201.791338584
543,33399901.5013581
1821,46145485.70955593
2075,6791184.0
2,7, 7, 7, 1,21, 0.00,60.00,Saturday
75,48904615.70955594
111,3861201.791338584
543,33399901.5013581
1821,48904615.70955593
2075,6791184.0
2,7, 7, 7, 1,22, 0.00,60.00,Saturday
75,48904615.70955594
111,3861201.791338584
543,33399901.5013581
1821,48904615.70955593
2075,6791184.0
2,7, 7, 7, 1,23, 0.00,60.00,Saturday
75,48904615.70955594
111,3861201.791338584
543,33399901.5013581
1821,48904615.70955593
2075,6791184.0
2,7, 7, 7, 1,24, 0.00,60.00,Saturday
75,46359235.70955594
111,3861201.791338584
543,33399901.5013581
1821,46359235.70955593
2075,6791184.0
2,8, 7, 8, 1, 1, 0.00,60.00,Sunday
75,46359235.70955594
111,3861201.791338584
543,33399901.5013581
1821,46359235.70955593
2075,6791184.0
2,8, 7, 8, 1, 2, 0.00,60.00,Sunday
75,46359235.70955594
111,3861201.791338584
543,33399901.5013581
1821,46359235.70955593
2075,6791184.0
2,8, 7, 8, 1, 3, 0.00,60.00,Sunday
75,46359235.70955594
111,3861201.791338584
543,33399901.5013581
1821,46359235.70955593
2075,6791184.0
2,8, 7, 8, 1, 4, 0.00,60.00,Sunday
75,46359235.70955594
111,3861201.791338584
543,33399901.5013581
1821,46359235.70955593
2075,6791184.0
2,8, 7, 8, 1, 5, 0.00,60.00,Sunday
75,42113665.70955594
111,3861201.791338584
543,33399901.5013581
1821,42113665.70955594
2075,6791184.0
2,8, 7, 8, 1, 6, 0.00,60.00,Sunday
75,47117291.91407901
111,5019575.47917415
543,41385398.90873409
1821,47117291.91407901
2075,6791184.0
2,8, 7, 8, 1, 7, 0.00,60.00,Sunday
75,61016264.843172479
111,5179615.347335821
543,41385398.90873409
1821,61016264.84317247
2075,6791184.0
2,8, 7, 8, 1, 8, 0.00,60.00,Sunday
75,101820531.95535334
111,5173573.547439723
543,41385398.90873409
1821,101820531.95535334
2075,6791184.0
2,8, 7, 8, 1, 9, 0.00,60.00,Sunday
75,98776815.13569618
111,5173573.547439723
543,41385398.90873409
1821,98776815.13569618
2075,6791184.0
2,8, 7, 8, 1,10, 0.00,60.00,Sunday
75,116489381.69305395
111,5173573.547439723
543,41385398.90873409
1821,116489381.69305395
2075,6791184.0
2,8, 7, 8, 1,11, 0.00,60.00,Sunday
75,105718759.45975141
111,5173573.547439723
543,41385398.90873409
1821,105718759.45975141
2075,6791184.0
2,8, 7, 8, 1,12, 0.00,60.00,Sunday
75,98953475.8395238
111,5173573.547439723
543,41385398.90873409
1821,98953475.8395238
2075,6791184.0
2,8, 7, 8, 1,13, 0.00,60.00,Sunday
75,107418176.62845102
111,5173573.547439723
543,41385398.90873409
1821,107418176.628451
2075,6791184.0
2,8, 7, 8, 1,14, 0.00,60.00,Sunday
75,103315311.73377502
111,5173573.547439723
543,41385398.90873409
1821,103315311.73377502
2075,6791184.0
2,8, 7, 8, 1,15, 0.00,60.00,Sunday
75,84099308.90353388
111,5173573.547439723
543,41385398.90873409
1821,84099308.90353388
2075,6791184.0
2,8, 7, 8, 1,16, 0.00,60.00,Sunday
75,91337871.69973304
111,5173573.547439723
543,41385398.90873409
1821,91337871.69973304
2075,6791184.0
2,8, 7, 8, 1,17, 0.00,60.00,Sunday
75,89482167.46811189
111,5179615.743675357
543,41385398.90873409
1821,89482167.46811189
2075,6791184.0
2,8, 7, 8, 1,18, 0.00,60.00,Sunday
75,81900871.86282337
111,4352830.555745966
543,33399901.5013581
1821,81900871.86282337
2075,6791184.0
2,8, 7, 8, 1,19, 0.00,60.00,Sunday
75,52882770.71227823
111,3847663.1600373408
543,33399901.5013581
1821,52882770.712278228
2075,6791184.0
2,8, 7, 8, 1,20, 0.00,60.00,Sunday
75,46145488.11055954
111,3861201.791338584
543,33399901.5013581
1821,46145488.11055953
2075,6791184.0
2,8, 7, 8, 1,21, 0.00,60.00,Sunday
75,48904615.70955594
111,3861201.791338584
543,33399901.5013581
1821,48904615.70955593
2075,6791184.0
2,8, 7, 8, 1,22, 0.00,60.00,Sunday
75,48904615.70955594
111,3861201.791338584
543,33399901.5013581
1821,48904615.70955593
2075,6791184.0
2,8, 7, 8, 1,23, 0.00,60.00,Sunday
75,48904615.70955594
111,3861201.791338584
543,33399901.5013581
1821,48904615.70955593
2075,6791184.0
2,8, 7, 8, 1,24, 0.00,60.00,Sunday
75,46359235.70955594
111,3861201.791338584
543,33399901.5013581
1821,46359235.70955593
2075,6791184.0
2,9, 7, 9, 1, 1, 0.00,60.00,Monday
75,57609860.11373618
111,3861201.791338584
543,44533202.00181078
1821,57609860.11373618
2075,6791184.0
2,9, 7, 9, 1, 2, 0.00,60.00,Monday
75,57609860.11373618
111,3861201.791338584
543,44533202.00181078
1821,57609860.11373618
2075,6791184.0
2,9, 7, 9, 1, 3, 0.00,60.00,Monday
75,57609860.11373618
111,3861201.791338584
543,44533202.00181078
1821,57609860.11373618
2075,6791184.0
2,9, 7, 9, 1, 4, 0.00,60.00,Monday
75,57609860.11373618
111,3861201.791338584
543,44533202.00181078
1821,57609860.11373618
2075,6791184.0
2,9, 7, 9, 1, 5, 0.00,60.00,Monday
75,53364290.11373618
111,3861201.791338584
543,44533202.00181078
1821,53364290.11373618
2075,6791184.0
2,9, 7, 9, 1, 6, 0.00,60.00,Monday
75,92005782.88826208
111,8874869.349937216
543,55180531.87831212
1821,92005782.88826208
2075,6791184.0
2,9, 7, 9, 1, 7, 0.00,60.00,Monday
75,179637963.2512886
111,31053524.884430559
543,95796493.41677365
1821,179637963.25128863
2075,6791184.0
2,9, 7, 9, 1, 8, 0.00,60.00,Monday
75,406201940.0197639
111,93124323.85391507
543,204227663.7591693
1821,406201940.01976397
2075,6791184.0
2,9, 7, 9, 1, 9, 0.00,60.00,Monday
75,398437567.2713931
111,93124323.85391507
543,174055806.61631219
1821,398437567.2713931
2075,6791184.0
2,9, 7, 9, 1,10, 0.00,60.00,Monday
75,422863552.046286
111,93124323.85391507
543,167093070.35257594
1821,422863552.04628589
2075,6791184.0
2,9, 7, 9, 1,11, 0.00,60.00,Monday
75,452172011.75711
111,93124323.85391507
543,174055806.61631219
1821,452172011.75710996
2075,11368921.280543715
2,9, 7, 9, 1,12, 0.00,60.00,Monday
75,460462110.36034026
111,93124323.85391507
543,177667514.30607478
1821,460462110.3603403
2075,25809370.24283299
2,9, 7, 9, 1,13, 0.00,60.00,Monday
75,481044651.8064302
111,93124323.85391507
543,179858086.8360924
1821,481044651.8064302
2075,25599771.124224646
2,9, 7, 9, 1,14, 0.00,60.00,Monday
75,502013433.3158635
111,93124323.85391507
543,167093070.35257594
1821,502013433.3158635
2075,15528896.737089236
2,9, 7, 9, 1,15, 0.00,60.00,Monday
75,470219542.4013391
111,93124323.85391507